 argument  1 = serine.nw
                                         
                                         


              Northwest Computational Chemistry Package (NWChem) 6.5
              ------------------------------------------------------


                    Environmental Molecular Sciences Laboratory
                       Pacific Northwest National Laboratory
                                Richland, WA 99352

                              Copyright (c) 1994-2014
                       Pacific Northwest National Laboratory
                            Battelle Memorial Institute

             NWChem is an open-source computational chemistry package
                        distributed under the terms of the
                      Educational Community License (ECL) 2.0
             A copy of the license is included with this distribution
                              in the LICENSE.TXT file

                                  ACKNOWLEDGMENT
                                  --------------

            This software and its documentation were developed at the
            EMSL at Pacific Northwest National Laboratory, a multiprogram
            national laboratory, operated for the U.S. Department of Energy
            by Battelle under Contract Number DE-AC05-76RL01830. Support
            for this work was provided by the Department of Energy Office
            of Biological and Environmental Research, Office of Basic
            Energy Sciences, and the Office of Advanced Scientific Computing.


           Job information
           ---------------

    hostname        = feranchuk1
    program         = nwchem
    date            = Fri Nov  2 01:32:49 2018

    compiled        = Sun_Nov_23_19:30:00_2014
    source          = /build/nwchem-bsfQMB/nwchem-6.5+r26243
    nwchem branch   = 6.5
    nwchem revision = 26243
    ga revision     = 10506
    input           = serine.nw
    prefix          = serine.
    data base       = ./serine.db
    status          = restart
    nproc           =        1
    time left       =     -1s



           Memory information
           ------------------

    heap     =   13107194 doubles =    100.0 Mbytes
    stack    =   13107195 doubles =    100.0 Mbytes
    global   =   26214400 doubles =    200.0 Mbytes (distinct from heap & stack)
    total    =   52428789 doubles =    400.0 Mbytes
    verify   = yes
    hardfail = no 


           Directory information
           ---------------------

  0 permanent = .
  0 scratch   = .


           Previous task information
           -------------------------

    Theory    = scf                             
    Operation = optimize                      
    Status    = fail                          
    Qmmm      = F
    Ignore    = F


           Geometries in the database
           --------------------------

       Name                              Natoms  Last Modified
       --------------------------------  ------  ------------------------
    1  geometry                              14  Fri Nov  2 01:32:37 2018  
    2  driverinitial                         14  Fri Nov  2 01:32:37 2018  

  The geometry named "geometry" is the default for restart



           Basis sets in the database
           --------------------------

       Name                              Natoms  Last Modified
        --------------------------------  ------  ------------------------
    1  ao basis                               4  Fri Nov  2 01:32:37 2018  

  The basis set named "ao basis" is the default AO basis for restart




                                NWChem Input Module
                                -------------------


                                      serine
                                      ------

 Scaling coordinates for geometry "geometry" by  1.889725989
 (inverse scale =  0.529177249)

 C1  symmetry detected

          ------
          auto-z
          ------


                             Geometry "geometry" -> ""
                             -------------------------

 Output coordinates in angstroms (scale by  1.889725989 to convert to a.u.)

  No.       Tag          Charge          X              Y              Z
 ---- ---------------- ---------- -------------- -------------- --------------
    1 O                    8.0000     0.93088854    -1.93137173    -0.26663767
    2 O                    8.0000     1.53260863     0.87104661     0.62990568
    3 O                    8.0000     0.08512237     1.71785516    -0.90320051
    4 N                    7.0000    -1.94283604     0.29298197     0.36985788
    5 C                    6.0000    -0.56968223    -0.19852066     0.47143381
    6 C                    6.0000    -0.40726592    -1.45754029    -0.37556098
    7 C                    6.0000     0.34450092     0.90344645    -0.02886211
    8 H                    1.0000    -0.33993405    -0.39939980     1.52384867
    9 H                    1.0000    -1.08334468    -2.25426969    -0.04698950
   10 H                    1.0000    -0.59903385    -1.25904974    -1.43573053
   11 H                    1.0000    -2.16758763     0.51285721    -0.59975829
   12 H                    1.0000    -2.04199824     1.15965735     0.89681811
   13 H                    1.0000     1.09540295    -2.12933826     0.67111472
   14 H                    1.0000     2.14207475     1.57411577     0.31908734

      Atomic Mass 
      ----------- 

      O                 15.994910
      N                 14.003070
      C                 12.000000
      H                  1.007825


 Effective nuclear repulsion energy (a.u.)     325.3741727294

            Nuclear Dipole moment (a.u.) 
            ----------------------------
        X                 Y               Z
 ---------------- ---------------- ----------------
    -0.0000000000     0.0000000000     0.0000000000



                                Z-matrix (autoz)
                                -------- 

 Units are Angstrom for bonds and degrees for angles

      Type          Name      I     J     K     L     M      Value
      ----------- --------  ----- ----- ----- ----- ----- ----------
    1 Stretch                  1     6                       1.42374
    2 Stretch                  1    13                       0.97244
    3 Stretch                  2     7                       1.35891
    4 Stretch                  2    14                       0.98100
    5 Stretch                  3     7                       1.22270
    6 Stretch                  4     5                       1.46200
    7 Stretch                  4    11                       1.01932
    8 Stretch                  4    12                       1.01914
    9 Stretch                  5     6                       1.52608
   10 Stretch                  5     7                       1.51669
   11 Stretch                  5     8                       1.09577
   12 Stretch                  6     9                       1.09536
   13 Stretch                  6    10                       1.09551
   14 Bend                     1     6     5               109.39846
   15 Bend                     1     6     9               108.36650
   16 Bend                     1     6    10               107.38940
   17 Bend                     2     7     3               123.23067
   18 Bend                     2     7     5               110.47249
   19 Bend                     3     7     5               126.29581
   20 Bend                     4     5     6               109.80091
   21 Bend                     4     5     7               107.39409
   22 Bend                     4     5     8               108.98285
   23 Bend                     5     4    11               110.22450
   24 Bend                     5     4    12               109.95940
   25 Bend                     5     6     9               111.58650
   26 Bend                     5     6    10               111.65413
   27 Bend                     6     1    13               107.48978
   28 Bend                     6     5     7               110.62123
   29 Bend                     6     5     8               111.06940
   30 Bend                     7     2    14               111.86987
   31 Bend                     7     5     8               108.88233
   32 Bend                     9     6    10               108.30257
   33 Bend                    11     4    12               106.67599
   34 Torsion                  1     6     5     4        -179.79029
   35 Torsion                  1     6     5     7          61.85289
   36 Torsion                  1     6     5     8         -59.17958
   37 Torsion                  2     7     5     4         148.01990
   38 Torsion                  2     7     5     6         -92.16719
   39 Torsion                  2     7     5     8          30.15374
   40 Torsion                  3     7     2    14           0.10713
   41 Torsion                  3     7     5     4         -32.34104
   42 Torsion                  3     7     5     6          87.47186
   43 Torsion                  3     7     5     8        -150.20720
   44 Torsion                  4     5     6     9         -59.88450
   45 Torsion                  4     5     6    10          61.47785
   46 Torsion                  5     6     1    13          60.05396
   47 Torsion                  5     7     2    14         179.75935
   48 Torsion                  6     5     4    11         -59.83510
   49 Torsion                  6     5     4    12        -177.16756
   50 Torsion                  7     5     4    11          60.49933
   51 Torsion                  7     5     4    12         -56.83312
   52 Torsion                  7     5     6     9        -178.24132
   53 Torsion                  7     5     6    10         -56.87897
   54 Torsion                  8     5     4    11         178.30019
   55 Torsion                  8     5     4    12          60.96774
   56 Torsion                  8     5     6     9          60.72621
   57 Torsion                  8     5     6    10        -177.91144
   58 Torsion                  9     6     1    13         -61.80910
   59 Torsion                 10     6     1    13        -178.59866


            XYZ format geometry
            -------------------
    14
 geometry
 O                     0.93088854    -1.93137173    -0.26663767
 O                     1.53260863     0.87104661     0.62990568
 O                     0.08512237     1.71785516    -0.90320051
 N                    -1.94283604     0.29298197     0.36985788
 C                    -0.56968223    -0.19852066     0.47143381
 C                    -0.40726592    -1.45754029    -0.37556098
 C                     0.34450092     0.90344645    -0.02886211
 H                    -0.33993405    -0.39939980     1.52384867
 H                    -1.08334468    -2.25426969    -0.04698950
 H                    -0.59903385    -1.25904974    -1.43573053
 H                    -2.16758763     0.51285721    -0.59975829
 H                    -2.04199824     1.15965735     0.89681811
 H                     1.09540295    -2.12933826     0.67111472
 H                     2.14207475     1.57411577     0.31908734

 ==============================================================================
                                internuclear distances
 ------------------------------------------------------------------------------
       center one      |      center two      | atomic units |  angstroms
 ------------------------------------------------------------------------------
    5 C                |   4 N                |     2.76278  |     1.46200
    6 C                |   1 O                |     2.69048  |     1.42374
    6 C                |   5 C                |     2.88387  |     1.52608
    7 C                |   2 O                |     2.56796  |     1.35891
    7 C                |   3 O                |     2.31058  |     1.22270
    7 C                |   5 C                |     2.86613  |     1.51669
    8 H                |   5 C                |     2.07071  |     1.09577
    9 H                |   6 C                |     2.06994  |     1.09536
   10 H                |   6 C                |     2.07021  |     1.09551
   11 H                |   4 N                |     1.92624  |     1.01932
   12 H                |   4 N                |     1.92590  |     1.01914
   13 H                |   1 O                |     1.83764  |     0.97244
   14 H                |   2 O                |     1.85382  |     0.98100
 ------------------------------------------------------------------------------
                         number of included internuclear distances:         13
 ==============================================================================



 ==============================================================================
                                 internuclear angles
 ------------------------------------------------------------------------------
        center 1       |       center 2       |       center 3       |  degrees
 ------------------------------------------------------------------------------
    6 C                |   1 O                |  13 H                |   107.49
    7 C                |   2 O                |  14 H                |   111.87
    5 C                |   4 N                |  11 H                |   110.22
    5 C                |   4 N                |  12 H                |   109.96
   11 H                |   4 N                |  12 H                |   106.68
    4 N                |   5 C                |   6 C                |   109.80
    4 N                |   5 C                |   7 C                |   107.39
    4 N                |   5 C                |   8 H                |   108.98
    6 C                |   5 C                |   7 C                |   110.62
    6 C                |   5 C                |   8 H                |   111.07
    7 C                |   5 C                |   8 H                |   108.88
    1 O                |   6 C                |   5 C                |   109.40
    1 O                |   6 C                |   9 H                |   108.37
    1 O                |   6 C                |  10 H                |   107.39
    5 C                |   6 C                |   9 H                |   111.59
    5 C                |   6 C                |  10 H                |   111.65
    9 H                |   6 C                |  10 H                |   108.30
    2 O                |   7 C                |   3 O                |   123.23
    2 O                |   7 C                |   5 C                |   110.47
    3 O                |   7 C                |   5 C                |   126.30
 ------------------------------------------------------------------------------
                            number of included internuclear angles:         20
 ==============================================================================



                      Basis "ao basis" -> "" (cartesian)
                      -----
  C (Carbon)
  ----------
            Exponent  Coefficients 
       -------------- ---------------------------------------------------------
  1 S  1.72256000E+02  0.061767
  1 S  2.59109000E+01  0.358794
  1 S  5.53335000E+00  0.700713

  2 S  3.66498000E+00 -0.395897
  2 S  7.70545000E-01  1.215840

  3 P  3.66498000E+00  0.236460
  3 P  7.70545000E-01  0.860619

  4 S  1.95857000E-01  1.000000

  5 P  1.95857000E-01  1.000000

  H (Hydrogen)
  ------------
            Exponent  Coefficients 
       -------------- ---------------------------------------------------------
  1 S  5.44717800E+00  0.156285
  1 S  8.24547000E-01  0.904691

  2 S  1.83192000E-01  1.000000

  O (Oxygen)
  ----------
            Exponent  Coefficients 
       -------------- ---------------------------------------------------------
  1 S  3.22037000E+02  0.059239
  1 S  4.84308000E+01  0.351500
  1 S  1.04206000E+01  0.707658

  2 S  7.40294000E+00 -0.404453
  2 S  1.57620000E+00  1.221560

  3 P  7.40294000E+00  0.244586
  3 P  1.57620000E+00  0.853955

  4 S  3.73684000E-01  1.000000

  5 P  3.73684000E-01  1.000000

  N (Nitrogen)
  ------------
            Exponent  Coefficients 
       -------------- ---------------------------------------------------------
  1 S  2.42766000E+02  0.059866
  1 S  3.64851000E+01  0.352955
  1 S  7.81449000E+00  0.706513

  2 S  5.42522000E+00 -0.413301
  2 S  1.14915000E+00  1.224420

  3 P  5.42522000E+00  0.237972
  3 P  1.14915000E+00  0.858953

  4 S  2.83205000E-01  1.000000

  5 P  2.83205000E-01  1.000000



 Summary of "ao basis" -> "" (cartesian)
 ------------------------------------------------------------------------------
       Tag                 Description            Shells   Functions and Types
 ---------------- ------------------------------  ------  ---------------------
 C                           3-21g                   5        9   3s2p
 H                           3-21g                   2        2   2s
 O                           3-21g                   5        9   3s2p
 N                           3-21g                   5        9   3s2p




                           NWChem Geometry Optimization
                           ----------------------------




                                      serine


 maximum gradient threshold         (gmax) =   0.000450
 rms gradient threshold             (grms) =   0.000300
 maximum cartesian step threshold   (xmax) =   0.001800
 rms cartesian step threshold       (xrms) =   0.001200
 fixed trust radius                (trust) =   0.300000
 maximum step size to saddle      (sadstp) =   0.100000
 energy precision                  (eprec) =   1.0D-07
 maximum number of steps          (nptopt) =   20
 initial hessian option           (inhess) =    0
 line search option               (linopt) =    1
 hessian update option            (modupd) =    1
 saddle point option              (modsad) =    0
 initial eigen-mode to follow     (moddir) =    0
 initial variable to follow       (vardir) =    0
 follow first negative mode     (firstneg) =    T
 apply conjugacy                    (opcg) =    F
 source of zmatrix                         =   autoz   


          -------------------
          Energy Minimization
          -------------------


 Names of Z-matrix variables 
    1              2              3              4              5         
    6              7              8              9             10         
   11             12             13             14             15         
   16             17             18             19             20         
   21             22             23             24             25         
   26             27             28             29             30         
   31             32             33             34             35         
   36             37             38             39             40         
   41             42             43             44             45         
   46             47             48             49             50         
   51             52             53             54             55         
   56             57             58             59         

 Variables with the same non-blank name are constrained to be equal


 Using old Hessian from previous optimization

          --------
          Step   0
          --------


                         Geometry "geometry" -> "geometry"
                         ---------------------------------

 Output coordinates in angstroms (scale by  1.889725989 to convert to a.u.)

  No.       Tag          Charge          X              Y              Z
 ---- ---------------- ---------- -------------- -------------- --------------
    1 O                    8.0000     0.93088854    -1.93137173    -0.26663767
    2 O                    8.0000     1.53260863     0.87104661     0.62990568
    3 O                    8.0000     0.08512237     1.71785516    -0.90320051
    4 N                    7.0000    -1.94283604     0.29298197     0.36985788
    5 C                    6.0000    -0.56968223    -0.19852066     0.47143381
    6 C                    6.0000    -0.40726592    -1.45754029    -0.37556098
    7 C                    6.0000     0.34450092     0.90344645    -0.02886211
    8 H                    1.0000    -0.33993405    -0.39939980     1.52384867
    9 H                    1.0000    -1.08334468    -2.25426969    -0.04698950
   10 H                    1.0000    -0.59903385    -1.25904974    -1.43573053
   11 H                    1.0000    -2.16758763     0.51285721    -0.59975829
   12 H                    1.0000    -2.04199824     1.15965735     0.89681811
   13 H                    1.0000     1.09540295    -2.12933826     0.67111472
   14 H                    1.0000     2.14207475     1.57411577     0.31908734

      Atomic Mass 
      ----------- 

      O                 15.994910
      N                 14.003070
      C                 12.000000
      H                  1.007825


 Effective nuclear repulsion energy (a.u.)     325.3741727294

            Nuclear Dipole moment (a.u.) 
            ----------------------------
        X                 Y               Z
 ---------------- ---------------- ----------------
    -0.0000000000     0.0000000000     0.0000000000

                                 NWChem SCF Module
                                 -----------------


                                      serine



  ao basis        = "ao basis"
  functions       =    77
  atoms           =    14
  closed shells   =    28
  open shells     =     0
  charge          =   0.00
  wavefunction    = RHF 
  input vectors   = ./serine.movecs
  output vectors  = ./serine.movecs
  use symmetry    = F
  symmetry adapt  = F


 Summary of "ao basis" -> "ao basis" (cartesian)
 ------------------------------------------------------------------------------
       Tag                 Description            Shells   Functions and Types
 ---------------- ------------------------------  ------  ---------------------
 C                           3-21g                   5        9   3s2p
 H                           3-21g                   2        2   2s
 O                           3-21g                   5        9   3s2p
 N                           3-21g                   5        9   3s2p



 Forming initial guess at       0.1s


 Loading old vectors from job with title :

serine


 Starting SCF solution at       0.1s



 ----------------------------------------------
         Quadratically convergent ROHF

 Convergence threshold     :          1.000E-04
 Maximum no. of iterations :           30
 Final Fock-matrix accuracy:          1.000E-07
 ----------------------------------------------


 Integral file          = ./serine.aoints.0
 Record size in doubles =  65536        No. of integs per rec  =  43688
 Max. records in memory =    143        Max. records in file   =  16225
 No. of bits per label  =      8        No. of bits per value  =     64


 #quartets = 5.261D+05 #integrals = 3.259D+06 #direct =  0.0% #cached =100.0%


              iter       energy          gnorm     gmax       time
             ----- ------------------- --------- --------- --------
                 1     -394.3331817469  1.60D+00  3.06D-01      1.2
                 2     -394.4741641958  4.66D-01  7.94D-02      1.5
                 3     -394.4921700089  4.21D-02  1.18D-02      1.8
                 4     -394.4925090959  1.20D-03  2.83D-04      2.4
                 5     -394.4925092431  6.41D-06  2.00D-06      3.2


       Final RHF  results 
       ------------------ 

         Total SCF energy =   -394.492509243099
      One-electron energy =  -1186.177740833573
      Two-electron energy =    466.311058861038
 Nuclear repulsion energy =    325.374172729436

        Time for solution =      3.1s


             Final eigenvalues
             -----------------

              1      
    1  -20.5092
    2  -20.4618
    3  -20.4515
    4  -15.4736
    5  -11.3426
    6  -11.2388
    7  -11.2309
    8   -1.4660
    9   -1.3663
   10   -1.3631
   11   -1.2077
   12   -1.0088
   13   -0.9075
   14   -0.7971
   15   -0.7265
   16   -0.6920
   17   -0.6835
   18   -0.6554
   19   -0.6333
   20   -0.6101
   21   -0.5843
   22   -0.5672
   23   -0.5448
   24   -0.4863
   25   -0.4752
   26   -0.4582
   27   -0.4396
   28   -0.3964
   29    0.1649
   30    0.2557
   31    0.2594
   32    0.2659
   33    0.2902
   34    0.3382
   35    0.3501
   36    0.3584
   37    0.4206
   38    0.4446

                       ROHF Final Molecular Orbital Analysis
                       -------------------------------------

 Vector    8  Occ=2.000000D+00  E=-1.466026D+00
              MO Center=  8.4D-01,  1.2D+00,  2.5D-04, r^2= 1.2D+00
   Bfn.  Coefficient  Atom+Function         Bfn.  Coefficient  Atom+Function  
  ----- ------------  ---------------      ----- ------------  ---------------
    15      0.504348   2 O  s                24      0.410036   3 O  s         
    10     -0.161833   2 O  s         

 Vector    9  Occ=2.000000D+00  E=-1.366295D+00
              MO Center=  6.9D-01,  1.1D+00, -1.7D-01, r^2= 1.8D+00
   Bfn.  Coefficient  Atom+Function         Bfn.  Coefficient  Atom+Function  
  ----- ------------  ---------------      ----- ------------  ---------------
    24     -0.549076   3 O  s                15      0.511980   2 O  s         
    19      0.168199   3 O  s                20     -0.156524   3 O  s         
    10     -0.152803   2 O  s                 6      0.150019   1 O  s         

 Vector   10  Occ=2.000000D+00  E=-1.363071D+00
              MO Center=  7.2D-01, -1.7D+00, -1.3D-01, r^2= 1.1D+00
   Bfn.  Coefficient  Atom+Function         Bfn.  Coefficient  Atom+Function  
  ----- ------------  ---------------      ----- ------------  ---------------
     6      0.665173   1 O  s                 1     -0.213162   1 O  s         
     2      0.197692   1 O  s         

 Vector   11  Occ=2.000000D+00  E=-1.207652D+00
              MO Center= -1.4D+00,  2.4D-01,  3.0D-01, r^2= 1.4D+00
   Bfn.  Coefficient  Atom+Function         Bfn.  Coefficient  Atom+Function  
  ----- ------------  ---------------      ----- ------------  ---------------
    33      0.540340   4 N  s                42      0.285077   5 C  s         
    28     -0.183048   4 N  s                29      0.164088   4 N  s         

 Vector   12  Occ=2.000000D+00  E=-1.008790D+00
              MO Center= -5.8D-01, -2.8D-01,  1.5D-01, r^2= 2.8D+00
   Bfn.  Coefficient  Atom+Function         Bfn.  Coefficient  Atom+Function  
  ----- ------------  ---------------      ----- ------------  ---------------
    33      0.408722   4 N  s                42     -0.400037   5 C  s         
    51     -0.275659   6 C  s                 6      0.223612   1 O  s         

 Vector   13  Occ=2.000000D+00  E=-9.074987D-01
              MO Center=  4.6D-02, -5.3D-01, -3.2D-02, r^2= 3.3D+00
   Bfn.  Coefficient  Atom+Function         Bfn.  Coefficient  Atom+Function  
  ----- ------------  ---------------      ----- ------------  ---------------
    51      0.474173   6 C  s                60     -0.225553   7 C  s         
    42     -0.193583   5 C  s                 6     -0.178621   1 O  s         

 Vector   14  Occ=2.000000D+00  E=-7.970521D-01
              MO Center=  3.4D-01,  1.9D-01,  2.9D-01, r^2= 3.8D+00
   Bfn.  Coefficient  Atom+Function         Bfn.  Coefficient  Atom+Function  
  ----- ------------  ---------------      ----- ------------  ---------------
    42      0.397457   5 C  s                60     -0.256761   7 C  s         
    12      0.239989   2 O  px               16      0.231129   2 O  px        
    51     -0.195736   6 C  s                24      0.156937   3 O  s         

 Vector   15  Occ=2.000000D+00  E=-7.265361D-01
              MO Center= -1.3D-02,  9.5D-02,  1.1D-01, r^2= 3.4D+00
   Bfn.  Coefficient  Atom+Function         Bfn.  Coefficient  Atom+Function  
  ----- ------------  ---------------      ----- ------------  ---------------
    57      0.205160   7 C  px               16     -0.184677   2 O  px        
    12     -0.179762   2 O  px               41      0.170067   5 C  pz        

 Vector   16  Occ=2.000000D+00  E=-6.919947D-01
              MO Center= -2.1D-01, -1.7D-01,  5.6D-02, r^2= 4.2D+00
   Bfn.  Coefficient  Atom+Function         Bfn.  Coefficient  Atom+Function  
  ----- ------------  ---------------      ----- ------------  ---------------
    24      0.201075   3 O  s                 5     -0.175045   1 O  pz        
     9     -0.168945   1 O  pz               32      0.154698   4 N  pz        

 Vector   17  Occ=2.000000D+00  E=-6.835403D-01
              MO Center=  1.3D-01,  9.3D-01, -2.2D-01, r^2= 3.4D+00
   Bfn.  Coefficient  Atom+Function         Bfn.  Coefficient  Atom+Function  
  ----- ------------  ---------------      ----- ------------  ---------------
    24      0.352176   3 O  s                17     -0.226622   2 O  py        
    23     -0.216931   3 O  pz               27     -0.210866   3 O  pz        
    13     -0.206189   2 O  py               15      0.192339   2 O  s         
    58     -0.160473   7 C  py        

 Vector   18  Occ=2.000000D+00  E=-6.553529D-01
              MO Center=  2.2D-01, -6.4D-01, -5.2D-02, r^2= 3.8D+00
   Bfn.  Coefficient  Atom+Function         Bfn.  Coefficient  Atom+Function  
  ----- ------------  ---------------      ----- ------------  ---------------
    18      0.195962   2 O  pz               42     -0.191710   5 C  s         
    14      0.187127   2 O  pz                8     -0.181393   1 O  py        
     4     -0.178081   1 O  py               49     -0.161901   6 C  py        
    48     -0.160041   6 C  px               57     -0.153802   7 C  px        
    61     -0.153976   7 C  px               66      0.152344   9 H  s         

 Vector   19  Occ=2.000000D+00  E=-6.333475D-01
              MO Center= -4.1D-01, -1.3D-01,  5.9D-02, r^2= 4.1D+00
   Bfn.  Coefficient  Atom+Function         Bfn.  Coefficient  Atom+Function  
  ----- ------------  ---------------      ----- ------------  ---------------
     6      0.187415   1 O  s                31     -0.182431   4 N  py        
    39     -0.176755   5 C  px               35     -0.172629   4 N  py        
    54     -0.153533   6 C  pz               30      0.151347   4 N  px        

 Vector   20  Occ=2.000000D+00  E=-6.101445D-01
              MO Center= -1.5D-01,  3.0D-02, -1.6D-02, r^2= 4.2D+00
   Bfn.  Coefficient  Atom+Function         Bfn.  Coefficient  Atom+Function  
  ----- ------------  ---------------      ----- ------------  ---------------
    17      0.201929   2 O  py               32     -0.195635   4 N  pz        
    13      0.184092   2 O  py               36     -0.182726   4 N  pz        
     7     -0.157288   1 O  px        

 Vector   21  Occ=2.000000D+00  E=-5.842977D-01
              MO Center= -1.4D-02, -3.9D-01, -4.8D-02, r^2= 4.2D+00
   Bfn.  Coefficient  Atom+Function         Bfn.  Coefficient  Atom+Function  
  ----- ------------  ---------------      ----- ------------  ---------------
    17      0.204794   2 O  py               13      0.191572   2 O  py        
    49      0.183229   6 C  py               53      0.174743   6 C  py        
     7      0.160657   1 O  px                9      0.158280   1 O  pz        

 Vector   22  Occ=2.000000D+00  E=-5.671881D-01
              MO Center=  6.7D-01,  6.3D-01,  1.2D-01, r^2= 3.3D+00
   Bfn.  Coefficient  Atom+Function         Bfn.  Coefficient  Atom+Function  
  ----- ------------  ---------------      ----- ------------  ---------------
    18      0.307585   2 O  pz               14      0.270223   2 O  pz        
    15      0.221679   2 O  s                27      0.214234   3 O  pz        
    23      0.192865   3 O  pz               58      0.189050   7 C  py        
    17     -0.185913   2 O  py               13     -0.170524   2 O  py        
    26     -0.165228   3 O  py               42     -0.158140   5 C  s         

 Vector   23  Occ=2.000000D+00  E=-5.448472D-01
              MO Center= -5.3D-01, -5.2D-01,  2.4D-01, r^2= 3.3D+00
   Bfn.  Coefficient  Atom+Function         Bfn.  Coefficient  Atom+Function  
  ----- ------------  ---------------      ----- ------------  ---------------
    41      0.217879   5 C  pz               45      0.212508   5 C  pz        
    64      0.195838   8 H  s                 7      0.182969   1 O  px        
    34     -0.182319   4 N  px               30     -0.172392   4 N  px        
    39      0.164180   5 C  px               54     -0.160626   6 C  pz        
    65      0.160253   8 H  s                 3      0.159105   1 O  px        

 Vector   24  Occ=2.000000D+00  E=-4.863369D-01
              MO Center=  2.1D-01, -1.2D+00, -2.6D-01, r^2= 3.1D+00
   Bfn.  Coefficient  Atom+Function         Bfn.  Coefficient  Atom+Function  
  ----- ------------  ---------------      ----- ------------  ---------------
     7      0.277736   1 O  px                9     -0.278074   1 O  pz        
     5     -0.236964   1 O  pz                6      0.234126   1 O  s         
     3      0.218323   1 O  px               50      0.214014   6 C  pz        
    69     -0.166428  10 H  s         

 Vector   25  Occ=2.000000D+00  E=-4.751749D-01
              MO Center=  6.4D-01,  8.0D-01, -2.0D-01, r^2= 3.1D+00
   Bfn.  Coefficient  Atom+Function         Bfn.  Coefficient  Atom+Function  
  ----- ------------  ---------------      ----- ------------  ---------------
    18      0.290693   2 O  pz               27     -0.261549   3 O  pz        
    17      0.243838   2 O  py               26     -0.234704   3 O  py        
    14      0.225543   2 O  pz               23     -0.217584   3 O  pz        
     8     -0.201606   1 O  py               22     -0.189081   3 O  py        
    13      0.187311   2 O  py               25      0.171443   3 O  px        

 Vector   26  Occ=2.000000D+00  E=-4.582162D-01
              MO Center=  1.1D-01,  7.7D-01, -4.0D-01, r^2= 3.5D+00
   Bfn.  Coefficient  Atom+Function         Bfn.  Coefficient  Atom+Function  
  ----- ------------  ---------------      ----- ------------  ---------------
    25      0.388600   3 O  px               21      0.344380   3 O  px        
    42      0.278946   5 C  s                26      0.211120   3 O  py        
     8     -0.202396   1 O  py               22      0.188248   3 O  py        
    45     -0.176130   5 C  pz               16      0.170086   2 O  px        
     4     -0.167533   1 O  py        

 Vector   27  Occ=2.000000D+00  E=-4.396176D-01
              MO Center=  1.7D-01, -8.6D-01, -2.1D-01, r^2= 3.9D+00
   Bfn.  Coefficient  Atom+Function         Bfn.  Coefficient  Atom+Function  
  ----- ------------  ---------------      ----- ------------  ---------------
     8      0.426321   1 O  py                4      0.344042   1 O  py        
    25      0.213953   3 O  px               44      0.189054   5 C  py        
    21      0.184517   3 O  px               49     -0.172889   6 C  py        
    40      0.165715   5 C  py               67      0.158362   9 H  s         

 Vector   28  Occ=2.000000D+00  E=-3.963875D-01
              MO Center= -1.5D+00,  2.4D-01,  3.2D-01, r^2= 2.3D+00
   Bfn.  Coefficient  Atom+Function         Bfn.  Coefficient  Atom+Function  
  ----- ------------  ---------------      ----- ------------  ---------------
    35      0.363269   4 N  py               34      0.352298   4 N  px        
    31      0.281390   4 N  py               30      0.255468   4 N  px        
    33     -0.242889   4 N  s                60     -0.228860   7 C  s         
    36     -0.177420   4 N  pz               15      0.161203   2 O  s         

 Vector   29  Occ=0.000000D+00  E= 1.649227D-01
              MO Center=  1.2D-01,  6.4D-01, -6.8D-02, r^2= 3.0D+00
   Bfn.  Coefficient  Atom+Function         Bfn.  Coefficient  Atom+Function  
  ----- ------------  ---------------      ----- ------------  ---------------
    51      0.561990   6 C  s                63      0.392921   7 C  pz        
    67     -0.355036   9 H  s                62      0.330806   7 C  py        
    27     -0.313291   3 O  pz               33     -0.314804   4 N  s         
    65     -0.291072   8 H  s                26     -0.273624   3 O  py        
    59      0.271154   7 C  pz               45      0.261464   5 C  pz        

 Vector   30  Occ=0.000000D+00  E= 2.557418D-01
              MO Center=  1.5D+00,  4.8D-01,  5.3D-01, r^2= 5.4D+00
   Bfn.  Coefficient  Atom+Function         Bfn.  Coefficient  Atom+Function  
  ----- ------------  ---------------      ----- ------------  ---------------
    77      1.030306  14 H  s                42     -0.734772   5 C  s         
    15     -0.674762   2 O  s                75      0.614571  13 H  s         
    65      0.519280   8 H  s                 6     -0.407210   1 O  s         
    17     -0.334316   2 O  py               60      0.277283   7 C  s         
     9     -0.263895   1 O  pz               67      0.258835   9 H  s         

 Vector   31  Occ=0.000000D+00  E= 2.594247D-01
              MO Center= -1.3D+00,  3.1D-01,  3.7D-01, r^2= 4.5D+00
   Bfn.  Coefficient  Atom+Function         Bfn.  Coefficient  Atom+Function  
  ----- ------------  ---------------      ----- ------------  ---------------
    33      1.192077   4 N  s                73     -0.852629  12 H  s         
    65     -0.757341   8 H  s                42      0.641159   5 C  s         
    71     -0.612554  11 H  s                51      0.418828   6 C  s         
    43      0.397445   5 C  px               35      0.361394   4 N  py        
    67     -0.353140   9 H  s                45      0.323258   5 C  pz        

 Vector   32  Occ=0.000000D+00  E= 2.658696D-01
              MO Center=  9.1D-01, -2.9D-01,  4.8D-01, r^2= 6.3D+00
   Bfn.  Coefficient  Atom+Function         Bfn.  Coefficient  Atom+Function  
  ----- ------------  ---------------      ----- ------------  ---------------
    77     -0.798449  14 H  s                65      0.755136   8 H  s         
    75      0.733755  13 H  s                 6     -0.557638   1 O  s         
    45     -0.539950   5 C  pz               15      0.478047   2 O  s         
    67      0.451758   9 H  s                71     -0.321691  11 H  s         
    52      0.307816   6 C  px                9     -0.284816   1 O  pz        

 Vector   33  Occ=0.000000D+00  E= 2.902109D-01
              MO Center= -6.9D-01, -9.0D-01, -5.6D-01, r^2= 4.4D+00
   Bfn.  Coefficient  Atom+Function         Bfn.  Coefficient  Atom+Function  
  ----- ------------  ---------------      ----- ------------  ---------------
    69      1.393174  10 H  s                51     -1.191046   6 C  s         
    65     -0.772322   8 H  s                54      0.648171   6 C  pz        
    71      0.549919  11 H  s                52      0.539515   6 C  px        
    67      0.526949   9 H  s                45      0.363122   5 C  pz        
    42      0.338094   5 C  s                 6     -0.294282   1 O  s         

 Vector   34  Occ=0.000000D+00  E= 3.382156D-01
              MO Center= -6.4D-01, -8.0D-01,  4.6D-01, r^2= 6.1D+00
   Bfn.  Coefficient  Atom+Function         Bfn.  Coefficient  Atom+Function  
  ----- ------------  ---------------      ----- ------------  ---------------
    65      0.940677   8 H  s                67      0.915647   9 H  s         
    42     -0.770180   5 C  s                51     -0.754339   6 C  s         
    73     -0.731729  12 H  s                75     -0.699317  13 H  s         
    33      0.601016   4 N  s                69      0.595578  10 H  s         
    53      0.524285   6 C  py                6      0.460977   1 O  s         

 Vector   35  Occ=0.000000D+00  E= 3.500724D-01
              MO Center= -8.5D-01, -1.5D+00, -1.8D-01, r^2= 3.9D+00
   Bfn.  Coefficient  Atom+Function         Bfn.  Coefficient  Atom+Function  
  ----- ------------  ---------------      ----- ------------  ---------------
    67      1.519645   9 H  s                69     -1.105316  10 H  s         
    54     -0.914780   6 C  pz               53      0.881608   6 C  py        
    65     -0.828362   8 H  s                42      0.670016   5 C  s         
    45      0.575168   5 C  pz               71      0.403805  11 H  s         
    52      0.370909   6 C  px               60     -0.328316   7 C  s         

 Vector   36  Occ=0.000000D+00  E= 3.584304D-01
              MO Center= -1.6D+00,  2.4D-01,  8.1D-02, r^2= 4.5D+00
   Bfn.  Coefficient  Atom+Function         Bfn.  Coefficient  Atom+Function  
  ----- ------------  ---------------      ----- ------------  ---------------
    73     -1.094020  12 H  s                51      1.062599   6 C  s         
    71      1.043719  11 H  s                36      0.755976   4 N  pz        
    42     -0.543341   5 C  s                44      0.530000   5 C  py        
    67     -0.487866   9 H  s                69     -0.440921  10 H  s         
    65      0.389745   8 H  s                35      0.343958   4 N  py        

 Vector   37  Occ=0.000000D+00  E= 4.205544D-01
              MO Center= -2.7D-01,  1.5D-03,  5.6D-02, r^2= 3.2D+00
   Bfn.  Coefficient  Atom+Function         Bfn.  Coefficient  Atom+Function  
  ----- ------------  ---------------      ----- ------------  ---------------
    60      1.976864   7 C  s                43     -1.251163   5 C  px        
    45      1.100929   5 C  pz               42     -0.976772   5 C  s         
    51      0.776623   6 C  s                53      0.731788   6 C  py        
    65     -0.543936   8 H  s                71     -0.543028  11 H  s         
    62     -0.526975   7 C  py               24     -0.428134   3 O  s         

 Vector   38  Occ=0.000000D+00  E= 4.446023D-01
              MO Center= -1.0D-01, -1.1D+00, -1.5D-02, r^2= 3.5D+00
   Bfn.  Coefficient  Atom+Function         Bfn.  Coefficient  Atom+Function  
  ----- ------------  ---------------      ----- ------------  ---------------
    51      1.417510   6 C  s                52      0.928740   6 C  px        
    42     -0.856462   5 C  s                 7      0.684417   1 O  px        
    75     -0.635084  13 H  s                 6     -0.539656   1 O  s         
    65      0.463371   8 H  s                44      0.450413   5 C  py        
     8     -0.326390   1 O  py               35     -0.290924   4 N  py        

 Vector   39  Occ=0.000000D+00  E= 4.571579D-01
              MO Center= -5.0D-01, -5.9D-01,  1.0D-02, r^2= 3.5D+00
   Bfn.  Coefficient  Atom+Function         Bfn.  Coefficient  Atom+Function  
  ----- ------------  ---------------      ----- ------------  ---------------
    42      1.427962   5 C  s                53     -1.026619   6 C  py        
    44     -1.007940   5 C  py               43     -0.815667   5 C  px        
    54     -0.782030   6 C  pz               51     -0.776480   6 C  s         
    52      0.680452   6 C  px               33     -0.627127   4 N  s         
    45     -0.616656   5 C  pz               61     -0.557598   7 C  px        

 Vector   40  Occ=0.000000D+00  E= 4.876081D-01
              MO Center= -2.5D-01,  2.1D-01,  3.7D-01, r^2= 3.5D+00
   Bfn.  Coefficient  Atom+Function         Bfn.  Coefficient  Atom+Function  
  ----- ------------  ---------------      ----- ------------  ---------------
    60     -1.510809   7 C  s                44      1.444342   5 C  py        
    51      0.770811   6 C  s                54      0.745650   6 C  pz        
    42      0.725957   5 C  s                34     -0.659161   4 N  px        
    33     -0.604519   4 N  s                16     -0.504928   2 O  px        
    63     -0.494871   7 C  pz               71     -0.429232  11 H  s         

 Vector   41  Occ=0.000000D+00  E= 5.572930D-01
              MO Center=  2.7D-01,  7.9D-01, -6.1D-02, r^2= 3.1D+00
   Bfn.  Coefficient  Atom+Function         Bfn.  Coefficient  Atom+Function  
  ----- ------------  ---------------      ----- ------------  ---------------
    42      2.040357   5 C  s                62      1.328202   7 C  py        
    61      1.277707   7 C  px               44      0.857046   5 C  py        
    24     -0.770087   3 O  s                45     -0.689123   5 C  pz        
    63     -0.546742   7 C  pz               15     -0.467238   2 O  s         
    25     -0.454613   3 O  px               34     -0.440041   4 N  px        


 center of mass
 --------------
 x =   0.05310771 y =   0.04985245 z =  -0.02364100

 moments of inertia (a.u.)
 ------------------
         729.953787213531          -0.000000000000          -0.000000000000
          -0.000000000000         574.980996968176          -0.000000000000
          -0.000000000000          -0.000000000000        1069.601037078404

  Mulliken analysis of the total density
  --------------------------------------

    Atom       Charge   Shell Charges
 -----------   ------   -------------------------------------------------------
    1 O    8     8.67   1.99  0.41  2.10  1.50  2.67
    2 O    8     8.71   1.99  0.41  2.11  1.52  2.68
    3 O    8     8.62   1.99  0.43  2.07  1.56  2.57
    4 N    7     7.74   1.99  0.36  1.81  1.35  2.23
    5 C    6     6.24   1.99  0.34  1.61  1.11  1.18
    6 C    6     6.03   1.99  0.37  1.56  0.99  1.13
    7 C    6     5.11   1.99  0.44  1.49  0.52  0.68
    8 H    1     0.74   0.47  0.27
    9 H    1     0.78   0.48  0.30
   10 H    1     0.76   0.48  0.29
   11 H    1     0.69   0.45  0.24
   12 H    1     0.70   0.45  0.25
   13 H    1     0.62   0.43  0.19
   14 H    1     0.59   0.40  0.18

       Multipole analysis of the density wrt the origin
       ------------------------------------------------

     L   x y z        total         open         nuclear
     -   - - -        -----         ----         -------
     0   0 0 0     -0.000000      0.000000     56.000000

     1   1 0 0      0.053467      0.000000     -0.000000
     1   0 1 0      0.118763      0.000000      0.000000
     1   0 0 1      0.789456      0.000000      0.000000

     2   2 0 0    -31.405522      0.000000    257.698406
     2   1 1 0      2.351372      0.000000      1.719249
     2   1 0 1      2.323519      0.000000      2.211993
     2   0 2 0    -30.697298      0.000000    333.705022
     2   0 1 1      0.519670      0.000000      1.900602
     2   0 0 2    -30.926464      0.000000     69.683502


 Parallel integral file used      75 records with       0 large values

                              NWChem Gradients Module
                              -----------------------


                                      serine


  wavefunction    =   RHF     



                         RHF ENERGY GRADIENTS

    atom               coordinates                        gradient
                 x          y          z           x          y          z
   1 O       1.759124  -3.649763  -0.503872   -0.012275   0.002235  -0.004148
   2 O       2.896210   1.646039   1.190349   -0.000706  -0.014290   0.008586
   3 O       0.160858   3.246276  -1.706801   -0.006174   0.023030  -0.026974
   4 N      -3.671428   0.553656   0.698930    0.009581  -0.011385   0.005970
   5 C      -1.076543  -0.375150   0.890881    0.010538  -0.014890  -0.004622
   6 C      -0.769621  -2.754352  -0.709707    0.007964   0.012664   0.005247
   7 C       0.651012   1.707266  -0.054541   -0.012543  -0.005565   0.017159
   8 H      -0.642382  -0.754756   2.879656   -0.000169  -0.000946   0.012290
   9 H      -2.047225  -4.259952  -0.088797    0.003357  -0.014445   0.000602
  10 H      -1.132010  -2.379259  -2.713137   -0.002716  -0.001362  -0.011735
  11 H      -4.096147   0.969160  -1.133379   -0.001158   0.004132  -0.008054
  12 H      -3.858817   2.191435   1.694740    0.004257   0.010881   0.001385
  13 H       2.070011  -4.023866   1.268223   -0.005737   0.000700   0.007223
  14 H       4.047934   2.974647   0.602988    0.005780   0.009241  -0.002929

                 ----------------------------------------
                 |  Time  |  1-e(secs)   |  2-e(secs)   |
                 ----------------------------------------
                 |  CPU   |       0.02   |       2.68   |
                 ----------------------------------------
                 |  WALL  |       0.02   |       2.68   |
                 ----------------------------------------

@ Step       Energy      Delta E   Gmax     Grms     Xrms     Xmax   Walltime
@ ---- ---------------- -------- -------- -------- -------- -------- --------
@    0    -394.49250924  0.0D+00  0.03594  0.00698  0.00000  0.00000      6.1
                                                                    



                                Z-matrix (autoz)
                                -------- 

 Units are Angstrom for bonds and degrees for angles

      Type          Name      I     J     K     L     M      Value     Gradient
      ----------- --------  ----- ----- ----- ----- ----- ---------- ----------
    1 Stretch                  1     6                       1.42374   -0.01767
    2 Stretch                  1    13                       0.97244    0.00585
    3 Stretch                  2     7                       1.35891    0.00730
    4 Stretch                  2    14                       0.98100    0.01114
    5 Stretch                  3     7                       1.22270    0.03594
    6 Stretch                  4     5                       1.46200   -0.01064
    7 Stretch                  4    11                       1.01932    0.00881
    8 Stretch                  4    12                       1.01914    0.00955
    9 Stretch                  5     6                       1.52608    0.00073
   10 Stretch                  5     7                       1.51669    0.00217
   11 Stretch                  5     8                       1.09577    0.01194
   12 Stretch                  6     9                       1.09536    0.00862
   13 Stretch                  6    10                       1.09551    0.01159
   14 Bend                     1     6     5               109.39846   -0.00525
   15 Bend                     1     6     9               108.36650   -0.00405
   16 Bend                     1     6    10               107.38940    0.00272
   17 Bend                     2     7     3               123.23067    0.00185
   18 Bend                     2     7     5               110.47249   -0.00466
   19 Bend                     3     7     5               126.29581    0.00282
   20 Bend                     4     5     6               109.80091    0.00335
   21 Bend                     4     5     7               107.39409   -0.00828
   22 Bend                     4     5     8               108.98285    0.00032
   23 Bend                     5     4    11               110.22450   -0.00004
   24 Bend                     5     4    12               109.95940   -0.00404
   25 Bend                     5     6     9               111.58650    0.00587
   26 Bend                     5     6    10               111.65413    0.00245
   27 Bend                     6     1    13               107.48978   -0.00696
   28 Bend                     6     5     7               110.62123    0.00441
   29 Bend                     6     5     8               111.06940   -0.00137
   30 Bend                     7     2    14               111.86987   -0.00078
   31 Bend                     7     5     8               108.88233    0.00127
   32 Bend                     9     6    10               108.30257   -0.00201
   33 Bend                    11     4    12               106.67599   -0.00006
   34 Torsion                  1     6     5     4        -179.79029    0.00017
   35 Torsion                  1     6     5     7          61.85289    0.00558
   36 Torsion                  1     6     5     8         -59.17958    0.00191
   37 Torsion                  2     7     5     4         148.01990   -0.00154
   38 Torsion                  2     7     5     6         -92.16719   -0.00001
   39 Torsion                  2     7     5     8          30.15374    0.00196
   40 Torsion                  3     7     2    14           0.10713    0.00096
   41 Torsion                  3     7     5     4         -32.34104   -0.00203
   42 Torsion                  3     7     5     6          87.47186   -0.00049
   43 Torsion                  3     7     5     8        -150.20720    0.00148
   44 Torsion                  4     5     6     9         -59.88450   -0.00462
   45 Torsion                  4     5     6    10          61.47785   -0.00133
   46 Torsion                  5     6     1    13          60.05396    0.00002
   47 Torsion                  5     7     2    14         179.75935    0.00051
   48 Torsion                  6     5     4    11         -59.83510   -0.00130
   49 Torsion                  6     5     4    12        -177.16756    0.00123
   50 Torsion                  7     5     4    11          60.49933    0.00098
   51 Torsion                  7     5     4    12         -56.83312    0.00351
   52 Torsion                  7     5     6     9        -178.24132    0.00078
   53 Torsion                  7     5     6    10         -56.87897    0.00408
   54 Torsion                  8     5     4    11         178.30019   -0.00192
   55 Torsion                  8     5     4    12          60.96774    0.00060
   56 Torsion                  8     5     6     9          60.72621   -0.00289
   57 Torsion                  8     5     6    10        -177.91144    0.00040
   58 Torsion                  9     6     1    13         -61.80910   -0.00144
   59 Torsion                 10     6     1    13        -178.59866    0.00157

                                 NWChem SCF Module
                                 -----------------


                                      serine



  ao basis        = "ao basis"
  functions       =    77
  atoms           =    14
  closed shells   =    28
  open shells     =     0
  charge          =   0.00
  wavefunction    = RHF 
  input vectors   = ./serine.movecs
  output vectors  = ./serine.movecs
  use symmetry    = F
  symmetry adapt  = F


 Summary of "ao basis" -> "ao basis" (cartesian)
 ------------------------------------------------------------------------------
       Tag                 Description            Shells   Functions and Types
 ---------------- ------------------------------  ------  ---------------------
 C                           3-21g                   5        9   3s2p
 H                           3-21g                   2        2   2s
 O                           3-21g                   5        9   3s2p
 N                           3-21g                   5        9   3s2p



 Forming initial guess at       6.1s


 Loading old vectors from job with title :

serine


 Starting SCF solution at       6.1s



 ----------------------------------------------
         Quadratically convergent ROHF

 Convergence threshold     :          1.000E-04
 Maximum no. of iterations :           30
 Final Fock-matrix accuracy:          1.000E-07
 ----------------------------------------------


 Integral file          = ./serine.aoints.0
 Record size in doubles =  65536        No. of integs per rec  =  43688
 Max. records in memory =    143        Max. records in file   =  16225
 No. of bits per label  =      8        No. of bits per value  =     64


 #quartets = 5.272D+05 #integrals = 3.256D+06 #direct =  0.0% #cached =100.0%


              iter       energy          gnorm     gmax       time
             ----- ------------------- --------- --------- --------
                 1     -394.4894164223  3.47D-01  4.73D-02      7.1
                 2     -394.4978005693  2.09D-02  4.51D-03      7.5
                 3     -394.4978626133  1.94D-04  8.00D-05      8.2
                 4     -394.4978626221  5.50D-06  1.03D-06      8.8


       Final RHF  results 
       ------------------ 

         Total SCF energy =   -394.497862622115
      One-electron energy =  -1187.248251873820
      Two-electron energy =    466.842032089740
 Nuclear repulsion energy =    325.908357161965

        Time for solution =      2.8s


             Final eigenvalues
             -----------------

              1      
    1  -20.5020
    2  -20.4571
    3  -20.4490
    4  -15.4746
    5  -11.3349
    6  -11.2348
    7  -11.2268
    8   -1.4808
    9   -1.3759
   10   -1.3499
   11   -1.2039
   12   -1.0180
   13   -0.9088
   14   -0.8003
   15   -0.7306
   16   -0.6939
   17   -0.6840
   18   -0.6544
   19   -0.6359
   20   -0.6117
   21   -0.5850
   22   -0.5657
   23   -0.5444
   24   -0.4877
   25   -0.4778
   26   -0.4572
   27   -0.4396
   28   -0.3976
   29    0.1801
   30    0.2603
   31    0.2638
   32    0.2766
   33    0.2948
   34    0.3379
   35    0.3596
   36    0.3649
   37    0.4302
   38    0.4378

                       ROHF Final Molecular Orbital Analysis
                       -------------------------------------

 Vector    8  Occ=2.000000D+00  E=-1.480774D+00
              MO Center=  7.8D-01,  1.2D+00, -1.0D-01, r^2= 1.2D+00
   Bfn.  Coefficient  Atom+Function         Bfn.  Coefficient  Atom+Function  
  ----- ------------  ---------------      ----- ------------  ---------------
    24      0.460770   3 O  s                15      0.451238   2 O  s         
    56      0.150713   7 C  s         

 Vector    9  Occ=2.000000D+00  E=-1.375866D+00
              MO Center=  8.8D-01,  1.2D+00, -3.9D-02, r^2= 1.4D+00
   Bfn.  Coefficient  Atom+Function         Bfn.  Coefficient  Atom+Function  
  ----- ------------  ---------------      ----- ------------  ---------------
    15      0.577269   2 O  s                24     -0.508850   3 O  s         
    10     -0.173571   2 O  s                11      0.159561   2 O  s         
    19      0.155958   3 O  s         

 Vector   10  Occ=2.000000D+00  E=-1.349927D+00
              MO Center=  7.5D-01, -1.8D+00, -1.6D-01, r^2= 7.3D-01
   Bfn.  Coefficient  Atom+Function         Bfn.  Coefficient  Atom+Function  
  ----- ------------  ---------------      ----- ------------  ---------------
     6      0.685860   1 O  s                 1     -0.219740   1 O  s         
     2      0.204370   1 O  s         

 Vector   11  Occ=2.000000D+00  E=-1.203894D+00
              MO Center= -1.5D+00,  2.2D-01,  2.9D-01, r^2= 1.4D+00
   Bfn.  Coefficient  Atom+Function         Bfn.  Coefficient  Atom+Function  
  ----- ------------  ---------------      ----- ------------  ---------------
    33      0.546971   4 N  s                42      0.280279   5 C  s         
    28     -0.184939   4 N  s                29      0.166637   4 N  s         

 Vector   12  Occ=2.000000D+00  E=-1.017992D+00
              MO Center= -6.2D-01, -2.7D-01,  1.5D-01, r^2= 2.8D+00
   Bfn.  Coefficient  Atom+Function         Bfn.  Coefficient  Atom+Function  
  ----- ------------  ---------------      ----- ------------  ---------------
    33      0.396709   4 N  s                42     -0.394345   5 C  s         
    51     -0.274898   6 C  s                 6      0.207334   1 O  s         

 Vector   13  Occ=2.000000D+00  E=-9.087796D-01
              MO Center=  4.6D-02, -5.0D-01, -1.6D-02, r^2= 3.3D+00
   Bfn.  Coefficient  Atom+Function         Bfn.  Coefficient  Atom+Function  
  ----- ------------  ---------------      ----- ------------  ---------------
    51      0.474876   6 C  s                60     -0.219885   7 C  s         
    42     -0.208130   5 C  s                 6     -0.159870   1 O  s         

 Vector   14  Occ=2.000000D+00  E=-8.002709D-01
              MO Center=  4.5D-01,  2.9D-01,  3.1D-01, r^2= 3.8D+00
   Bfn.  Coefficient  Atom+Function         Bfn.  Coefficient  Atom+Function  
  ----- ------------  ---------------      ----- ------------  ---------------
    42      0.387508   5 C  s                12      0.256146   2 O  px        
    16      0.245326   2 O  px               60     -0.241331   7 C  s         
    51     -0.197035   6 C  s                76      0.152821  14 H  s         
    24      0.150982   3 O  s         

 Vector   15  Occ=2.000000D+00  E=-7.306457D-01
              MO Center= -5.3D-02,  1.2D-01,  1.0D-01, r^2= 3.3D+00
   Bfn.  Coefficient  Atom+Function         Bfn.  Coefficient  Atom+Function  
  ----- ------------  ---------------      ----- ------------  ---------------
    57      0.208197   7 C  px               41      0.172045   5 C  pz        
    16     -0.168803   2 O  px               12     -0.166356   2 O  px        

 Vector   16  Occ=2.000000D+00  E=-6.938663D-01
              MO Center= -2.7D-01, -1.4D-01,  3.6D-02, r^2= 4.4D+00
   Bfn.  Coefficient  Atom+Function         Bfn.  Coefficient  Atom+Function  
  ----- ------------  ---------------      ----- ------------  ---------------
    24      0.211300   3 O  s                 5     -0.159209   1 O  pz        
    32      0.157778   4 N  pz                9     -0.152324   1 O  pz        

 Vector   17  Occ=2.000000D+00  E=-6.840270D-01
              MO Center=  1.5D-01,  9.5D-01, -2.7D-01, r^2= 3.4D+00
   Bfn.  Coefficient  Atom+Function         Bfn.  Coefficient  Atom+Function  
  ----- ------------  ---------------      ----- ------------  ---------------
    24      0.366324   3 O  s                23     -0.233674   3 O  pz        
    27     -0.225312   3 O  pz               17     -0.212045   2 O  py        
    13     -0.192238   2 O  py               15      0.189751   2 O  s         
    58     -0.161376   7 C  py        

 Vector   18  Occ=2.000000D+00  E=-6.543745D-01
              MO Center=  2.9D-01, -3.6D-01, -4.6D-02, r^2= 3.8D+00
   Bfn.  Coefficient  Atom+Function         Bfn.  Coefficient  Atom+Function  
  ----- ------------  ---------------      ----- ------------  ---------------
    18      0.213161   2 O  pz               14      0.204444   2 O  pz        
    42     -0.194496   5 C  s                 8     -0.167847   1 O  py        
     4     -0.164381   1 O  py               61     -0.159036   7 C  px        
    21     -0.157165   3 O  px               49     -0.156220   6 C  py        
    57     -0.154896   7 C  px               48     -0.151857   6 C  px        

 Vector   19  Occ=2.000000D+00  E=-6.359313D-01
              MO Center= -3.7D-01, -2.2D-02,  8.7D-02, r^2= 4.2D+00
   Bfn.  Coefficient  Atom+Function         Bfn.  Coefficient  Atom+Function  
  ----- ------------  ---------------      ----- ------------  ---------------
     6     -0.177626   1 O  s                 9      0.169026   1 O  pz        
     5      0.165934   1 O  pz               31      0.165911   4 N  py        
    35      0.157950   4 N  py               42     -0.156167   5 C  s         
    22     -0.152707   3 O  py               39      0.152416   5 C  px        
    72      0.152197  12 H  s         

 Vector   20  Occ=2.000000D+00  E=-6.117056D-01
              MO Center= -4.7D-01, -3.0D-01, -8.2D-02, r^2= 4.0D+00
   Bfn.  Coefficient  Atom+Function         Bfn.  Coefficient  Atom+Function  
  ----- ------------  ---------------      ----- ------------  ---------------
    32      0.204454   4 N  pz               36      0.190311   4 N  pz        
     7      0.175371   1 O  px               50     -0.162715   6 C  pz        
    70     -0.162178  11 H  s                17     -0.159395   2 O  py        
     3      0.157164   1 O  px        

 Vector   21  Occ=2.000000D+00  E=-5.849554D-01
              MO Center=  1.3D-01, -1.7D-01,  1.6D-02, r^2= 4.2D+00
   Bfn.  Coefficient  Atom+Function         Bfn.  Coefficient  Atom+Function  
  ----- ------------  ---------------      ----- ------------  ---------------
    17      0.245122   2 O  py               13      0.229335   2 O  py        
    49      0.175737   6 C  py               26      0.171565   3 O  py        
    53      0.163367   6 C  py               22      0.160005   3 O  py        
     9      0.153424   1 O  pz        

 Vector   22  Occ=2.000000D+00  E=-5.656686D-01
              MO Center=  6.4D-01,  3.4D-01,  1.4D-01, r^2= 3.5D+00
   Bfn.  Coefficient  Atom+Function         Bfn.  Coefficient  Atom+Function  
  ----- ------------  ---------------      ----- ------------  ---------------
    18      0.323314   2 O  pz               14      0.283638   2 O  pz        
    15      0.206295   2 O  s                27      0.204802   3 O  pz        
    23      0.187461   3 O  pz               58      0.182175   7 C  py        
     8      0.164605   1 O  py                4      0.150600   1 O  py        

 Vector   23  Occ=2.000000D+00  E=-5.444222D-01
              MO Center= -4.9D-01, -5.6D-01,  1.7D-01, r^2= 3.3D+00
   Bfn.  Coefficient  Atom+Function         Bfn.  Coefficient  Atom+Function  
  ----- ------------  ---------------      ----- ------------  ---------------
    41      0.223259   5 C  pz               45      0.213459   5 C  pz        
    64      0.193845   8 H  s                 7      0.187087   1 O  px        
    34     -0.177477   4 N  px               54     -0.174401   6 C  pz        
    30     -0.166860   4 N  px                3      0.162392   1 O  px        
    50     -0.160228   6 C  pz               65      0.159228   8 H  s         

 Vector   24  Occ=2.000000D+00  E=-4.876763D-01
              MO Center=  3.0D-01, -1.2D+00, -2.6D-01, r^2= 3.1D+00
   Bfn.  Coefficient  Atom+Function         Bfn.  Coefficient  Atom+Function  
  ----- ------------  ---------------      ----- ------------  ---------------
     9      0.304657   1 O  pz                7     -0.267750   1 O  px        
     5      0.260329   1 O  pz                6     -0.246114   1 O  s         
     3     -0.210314   1 O  px               50     -0.201572   6 C  pz        
    69      0.153913  10 H  s         

 Vector   25  Occ=2.000000D+00  E=-4.777960D-01
              MO Center=  7.6D-01,  7.2D-01, -1.7D-01, r^2= 3.1D+00
   Bfn.  Coefficient  Atom+Function         Bfn.  Coefficient  Atom+Function  
  ----- ------------  ---------------      ----- ------------  ---------------
    18      0.287843   2 O  pz               17      0.263481   2 O  py        
    27     -0.245581   3 O  pz               26     -0.241545   3 O  py        
    14      0.224732   2 O  pz               13      0.203365   2 O  py        
    23     -0.204075   3 O  pz                8     -0.202206   1 O  py        
    22     -0.194517   3 O  py               25      0.167716   3 O  px        

 Vector   26  Occ=2.000000D+00  E=-4.572042D-01
              MO Center=  1.5D-01,  5.8D-01, -3.5D-01, r^2= 3.7D+00
   Bfn.  Coefficient  Atom+Function         Bfn.  Coefficient  Atom+Function  
  ----- ------------  ---------------      ----- ------------  ---------------
    25      0.371323   3 O  px               21      0.329638   3 O  px        
    42      0.286325   5 C  s                 8     -0.223927   1 O  py        
    26      0.194747   3 O  py                4     -0.184952   1 O  py        
    45     -0.181528   5 C  pz               22      0.173749   3 O  py        
    16      0.166393   2 O  px               35      0.158764   4 N  py        

 Vector   27  Occ=2.000000D+00  E=-4.396492D-01
              MO Center=  8.3D-02, -8.0D-01, -1.8D-01, r^2= 4.0D+00
   Bfn.  Coefficient  Atom+Function         Bfn.  Coefficient  Atom+Function  
  ----- ------------  ---------------      ----- ------------  ---------------
     8      0.409384   1 O  py                4      0.331110   1 O  py        
    25      0.213079   3 O  px               44      0.197294   5 C  py        
    21      0.185905   3 O  px               34      0.165676   4 N  px        
    40      0.165882   5 C  py               49     -0.165768   6 C  py        
    67      0.150320   9 H  s         

 Vector   28  Occ=2.000000D+00  E=-3.976108D-01
              MO Center= -1.4D+00,  2.4D-01,  2.8D-01, r^2= 2.6D+00
   Bfn.  Coefficient  Atom+Function         Bfn.  Coefficient  Atom+Function  
  ----- ------------  ---------------      ----- ------------  ---------------
    35      0.379688   4 N  py               34      0.308183   4 N  px        
    31      0.291242   4 N  py               33     -0.244153   4 N  s         
    60     -0.235717   7 C  s                30      0.220280   4 N  px        
    15      0.166754   2 O  s                25     -0.166490   3 O  px        
    36     -0.167048   4 N  pz        

 Vector   29  Occ=0.000000D+00  E= 1.800893D-01
              MO Center=  1.2D-01,  5.8D-01, -6.2D-02, r^2= 3.1D+00
   Bfn.  Coefficient  Atom+Function         Bfn.  Coefficient  Atom+Function  
  ----- ------------  ---------------      ----- ------------  ---------------
    51      0.575381   6 C  s                67     -0.373236   9 H  s         
    33     -0.368452   4 N  s                63      0.370216   7 C  pz        
    62      0.360802   7 C  py               27     -0.306599   3 O  pz        
    26     -0.294478   3 O  py               44      0.282089   5 C  py        
    65     -0.274985   8 H  s                52     -0.267691   6 C  px        

 Vector   30  Occ=0.000000D+00  E= 2.603431D-01
              MO Center= -1.5D-01,  2.0D-01,  2.2D-01, r^2= 7.0D+00
   Bfn.  Coefficient  Atom+Function         Bfn.  Coefficient  Atom+Function  
  ----- ------------  ---------------      ----- ------------  ---------------
    33      1.018199   4 N  s                77      0.631279  14 H  s         
    73     -0.602459  12 H  s                71     -0.552019  11 H  s         
    75      0.533268  13 H  s                 6     -0.523365   1 O  s         
    15     -0.391593   2 O  s                51      0.339214   6 C  s         
    65     -0.330766   8 H  s                43      0.253748   5 C  px        

 Vector   31  Occ=0.000000D+00  E= 2.637727D-01
              MO Center=  4.1D-01,  6.8D-01,  4.2D-01, r^2= 7.0D+00
   Bfn.  Coefficient  Atom+Function         Bfn.  Coefficient  Atom+Function  
  ----- ------------  ---------------      ----- ------------  ---------------
    77     -0.913409  14 H  s                42      0.892308   5 C  s         
    65     -0.659800   8 H  s                33      0.627465   4 N  s         
    15      0.610752   2 O  s                73     -0.602102  12 H  s         
    51      0.460714   6 C  s                60     -0.398519   7 C  s         
    71     -0.390213  11 H  s                67     -0.373733   9 H  s         

 Vector   32  Occ=0.000000D+00  E= 2.765800D-01
              MO Center=  9.0D-01, -6.1D-01,  5.9D-01, r^2= 5.9D+00
   Bfn.  Coefficient  Atom+Function         Bfn.  Coefficient  Atom+Function  
  ----- ------------  ---------------      ----- ------------  ---------------
    65      0.845454   8 H  s                75      0.812311  13 H  s         
    77     -0.724964  14 H  s                 6     -0.620216   1 O  s         
    45     -0.574106   5 C  pz               67      0.527994   9 H  s         
    15      0.423955   2 O  s                52      0.371675   6 C  px        
    42     -0.329397   5 C  s                 9     -0.323536   1 O  pz        

 Vector   33  Occ=0.000000D+00  E= 2.948348D-01
              MO Center= -7.4D-01, -6.7D-01, -4.3D-01, r^2= 4.7D+00
   Bfn.  Coefficient  Atom+Function         Bfn.  Coefficient  Atom+Function  
  ----- ------------  ---------------      ----- ------------  ---------------
    69      1.378606  10 H  s                51     -1.045411   6 C  s         
    65     -0.922304   8 H  s                54      0.657852   6 C  pz        
    71      0.634209  11 H  s                52      0.468271   6 C  px        
    42      0.459257   5 C  s                45      0.453140   5 C  pz        
    67      0.337417   9 H  s                36      0.318322   4 N  pz        

 Vector   34  Occ=0.000000D+00  E= 3.379481D-01
              MO Center= -7.5D-01, -7.1D-01,  4.5D-01, r^2= 6.2D+00
   Bfn.  Coefficient  Atom+Function         Bfn.  Coefficient  Atom+Function  
  ----- ------------  ---------------      ----- ------------  ---------------
    65      0.973814   8 H  s                67      0.915288   9 H  s         
    51     -0.856800   6 C  s                42     -0.787163   5 C  s         
    73     -0.774929  12 H  s                69      0.670855  10 H  s         
    33      0.651385   4 N  s                75     -0.641154  13 H  s         
    45     -0.486458   5 C  pz               53      0.457557   6 C  py        

 Vector   35  Occ=0.000000D+00  E= 3.595871D-01
              MO Center= -8.8D-01, -1.4D+00, -1.1D-01, r^2= 3.9D+00
   Bfn.  Coefficient  Atom+Function         Bfn.  Coefficient  Atom+Function  
  ----- ------------  ---------------      ----- ------------  ---------------
    67      1.560622   9 H  s                69     -1.135913  10 H  s         
    53      0.948052   6 C  py               54     -0.909544   6 C  pz        
    65     -0.901405   8 H  s                45      0.683924   5 C  pz        
    42      0.589199   5 C  s                52      0.408654   6 C  px        
    71      0.389299  11 H  s                33     -0.219745   4 N  s         

 Vector   36  Occ=0.000000D+00  E= 3.648746D-01
              MO Center= -1.7D+00,  1.4D-01,  8.9D-02, r^2= 4.6D+00
   Bfn.  Coefficient  Atom+Function         Bfn.  Coefficient  Atom+Function  
  ----- ------------  ---------------      ----- ------------  ---------------
    51      1.154129   6 C  s                73     -1.078334  12 H  s         
    71      1.045532  11 H  s                36      0.757711   4 N  pz        
    67     -0.635404   9 H  s                42     -0.554608   5 C  s         
    44      0.539035   5 C  py               65      0.529954   8 H  s         
    69     -0.487164  10 H  s                35      0.326684   4 N  py        

 Vector   37  Occ=0.000000D+00  E= 4.301958D-01
              MO Center= -1.3D-01, -2.0D-01, -7.5D-02, r^2= 3.2D+00
   Bfn.  Coefficient  Atom+Function         Bfn.  Coefficient  Atom+Function  
  ----- ------------  ---------------      ----- ------------  ---------------
    60      1.817548   7 C  s                51      1.451550   6 C  s         
    42     -1.439953   5 C  s                43     -1.128016   5 C  px        
    45      1.038990   5 C  pz               53      0.770752   6 C  py        
    52      0.526717   6 C  px               24     -0.486392   3 O  s         
    71     -0.454916  11 H  s                54      0.441755   6 C  pz        

 Vector   38  Occ=0.000000D+00  E= 4.378305D-01
              MO Center= -2.8D-01, -9.3D-01,  1.8D-01, r^2= 3.8D+00
   Bfn.  Coefficient  Atom+Function         Bfn.  Coefficient  Atom+Function  
  ----- ------------  ---------------      ----- ------------  ---------------
    51      1.009947   6 C  s                43      0.710290   5 C  px        
    60     -0.695158   7 C  s                75     -0.632217  13 H  s         
    52      0.611946   6 C  px                7      0.580608   1 O  px        
    44      0.531628   5 C  py               65      0.506381   8 H  s         
    42     -0.499304   5 C  s                34      0.458877   4 N  px        

 Vector   39  Occ=0.000000D+00  E= 4.580664D-01
              MO Center= -4.4D-01, -5.0D-01,  4.1D-02, r^2= 3.7D+00
   Bfn.  Coefficient  Atom+Function         Bfn.  Coefficient  Atom+Function  
  ----- ------------  ---------------      ----- ------------  ---------------
    42      1.561429   5 C  s                43     -0.899783   5 C  px        
    52      0.871986   6 C  px               53     -0.835614   6 C  py        
    33     -0.749761   4 N  s                34     -0.694691   4 N  px        
    45     -0.484650   5 C  pz               54     -0.475081   6 C  pz        
    44     -0.456607   5 C  py                6     -0.406642   1 O  s         

 Vector   40  Occ=0.000000D+00  E= 4.787739D-01
              MO Center= -3.5D-01,  9.1D-02,  3.2D-01, r^2= 3.5D+00
   Bfn.  Coefficient  Atom+Function         Bfn.  Coefficient  Atom+Function  
  ----- ------------  ---------------      ----- ------------  ---------------
    60     -1.715125   7 C  s                44      1.615465   5 C  py        
    54      0.858541   6 C  pz               42      0.645309   5 C  s         
    51      0.592966   6 C  s                69      0.588348  10 H  s         
    53      0.557329   6 C  py               63     -0.517288   7 C  pz        
    71     -0.435916  11 H  s                34     -0.429875   4 N  px        

 Vector   41  Occ=0.000000D+00  E= 5.731724D-01
              MO Center=  5.1D-01,  8.9D-01, -5.8D-02, r^2= 2.8D+00
   Bfn.  Coefficient  Atom+Function         Bfn.  Coefficient  Atom+Function  
  ----- ------------  ---------------      ----- ------------  ---------------
    42      1.756868   5 C  s                61      1.364989   7 C  px        
    62      1.352083   7 C  py               24     -0.909229   3 O  s         
    45     -0.655866   5 C  pz               44      0.649994   5 C  py        
    15     -0.570117   2 O  s                43      0.564892   5 C  px        
    63     -0.563295   7 C  pz               25     -0.484518   3 O  px        


 center of mass
 --------------
 x =   0.08144103 y =   0.03834076 z =  -0.02048802

 moments of inertia (a.u.)
 ------------------
         703.847599631638          -5.402722682868           5.808137269594
          -5.402722682868         600.485452938237          -5.863460381167
           5.808137269594          -5.863460381167        1070.019586574108

  Mulliken analysis of the total density
  --------------------------------------

    Atom       Charge   Shell Charges
 -----------   ------   -------------------------------------------------------
    1 O    8     8.68   1.99  0.41  2.09  1.50  2.69
    2 O    8     8.72   1.99  0.41  2.12  1.51  2.69
    3 O    8     8.61   1.99  0.43  2.10  1.55  2.55
    4 N    7     7.75   1.99  0.36  1.82  1.34  2.23
    5 C    6     6.24   1.99  0.34  1.61  1.11  1.19
    6 C    6     6.04   1.99  0.36  1.56  1.00  1.13
    7 C    6     5.10   1.99  0.44  1.52  0.49  0.66
    8 H    1     0.74   0.48  0.26
    9 H    1     0.77   0.48  0.29
   10 H    1     0.76   0.48  0.28
   11 H    1     0.69   0.46  0.23
   12 H    1     0.69   0.46  0.23
   13 H    1     0.62   0.43  0.19
   14 H    1     0.59   0.41  0.17

       Multipole analysis of the density wrt the origin
       ------------------------------------------------

     L   x y z        total         open         nuclear
     -   - - -        -----         ----         -------
     0   0 0 0     -0.000000      0.000000     56.000000

     1   1 0 0     -0.011177      0.000000      1.390896
     1   0 1 0      0.167052      0.000000     -0.576874
     1   0 0 1      0.787316      0.000000      0.143841

     2   2 0 0    -30.189625      0.000000    273.341272
     2   1 1 0      1.521333      0.000000      3.791782
     2   1 0 1      2.277784      0.000000     -1.020416
     2   0 2 0    -30.679009      0.000000    319.365983
     2   0 1 1      0.273194      0.000000      4.717980
     2   0 0 2    -31.200145      0.000000     68.944012


 Parallel integral file used      75 records with       0 large values

 Line search: 
     step= 1.00 grad=-1.4D-02 hess= 8.9D-03 energy=   -394.497863 mode=downhill
 new step= 0.80                   predicted energy=   -394.498222

          --------
          Step   1
          --------


                         Geometry "geometry" -> "geometry"
                         ---------------------------------

 Output coordinates in angstroms (scale by  1.889725989 to convert to a.u.)

  No.       Tag          Charge          X              Y              Z
 ---- ---------------- ---------- -------------- -------------- --------------
[...]
   31 Bend                     7     5     8               108.05830    0.00003
   32 Bend                     9     6    10               108.63642   -0.00001
   33 Bend                    11     4    12               111.26535   -0.00001
   34 Torsion                  1     6     5     4         160.73333   -0.00000
   35 Torsion                  1     6     5     7          38.52539    0.00001
   36 Torsion                  1     6     5     8         -79.23489   -0.00002
   37 Torsion                  2     7     5     4         157.54556    0.00002
   38 Torsion                  2     7     5     6         -83.43551   -0.00000
   39 Torsion                  2     7     5     8          35.52545    0.00001
   40 Torsion                  3     7     2    14          -4.44584   -0.00002
   41 Torsion                  3     7     5     4         -23.24796    0.00001
   42 Torsion                  3     7     5     6          95.77097   -0.00001
   43 Torsion                  3     7     5     8        -145.26807    0.00000
   44 Torsion                  4     5     6     9         -73.61185   -0.00000
   45 Torsion                  4     5     6    10          44.01108    0.00001
   46 Torsion                  5     6     1    13          49.63820    0.00001
   47 Torsion                  5     7     2    14         174.79262   -0.00003
   48 Torsion                  6     5     4    11         -75.64976   -0.00001
   49 Torsion                  6     5     4    12         156.48816    0.00001
   50 Torsion                  7     5     4    11          43.61157   -0.00002
   51 Torsion                  7     5     4    12         -84.25052   -0.00000
   52 Torsion                  7     5     6     9         164.18020    0.00001
   53 Torsion                  7     5     6    10         -78.19686    0.00002
   54 Torsion                  8     5     4    11         164.44843    0.00000
   55 Torsion                  8     5     4    12          36.58634    0.00002
   56 Torsion                  8     5     6     9          46.41992   -0.00002
   57 Torsion                  8     5     6    10         164.04286   -0.00001
   58 Torsion                  9     6     1    13         -73.70749   -0.00002
   59 Torsion                 10     6     1    13         167.72286    0.00002


 ---------------------------------------------------------------
 Failed to converge in maximum number of steps or available time
 ---------------------------------------------------------------


  Step       Energy      Delta E   Gmax     Grms     Xrms     Xmax   Walltime
  ---- ---------------- -------- -------- -------- -------- -------- --------
@   20    -394.50250728 -6.4D-07  0.00010  0.00003  0.00131  0.00459    154.0
                                     ok       ok                    



                                Z-matrix (autoz)
                                -------- 

 Units are Angstrom for bonds and degrees for angles

      Type          Name      I     J     K     L     M      Value     Gradient
      ----------- --------  ----- ----- ----- ----- ----- ---------- ----------
    1 Stretch                  1     6                       1.43401    0.00001
    2 Stretch                  1    13                       0.96582    0.00008
    3 Stretch                  2     7                       1.35846   -0.00001
    4 Stretch                  2    14                       0.96905    0.00000
    5 Stretch                  3     7                       1.20108   -0.00005
    6 Stretch                  4     5                       1.45519    0.00003
    7 Stretch                  4    11                       1.00548    0.00005
    8 Stretch                  4    12                       1.00310   -0.00010
    9 Stretch                  5     6                       1.54575   -0.00005
   10 Stretch                  5     7                       1.50668   -0.00005
   11 Stretch                  5     8                       1.07975   -0.00002
   12 Stretch                  6     9                       1.08186   -0.00001
   13 Stretch                  6    10                       1.07774    0.00000
   14 Bend                     1     6     5               112.95510    0.00001
   15 Bend                     1     6     9               112.68452   -0.00002
   16 Bend                     1     6    10               105.79921   -0.00002
   17 Bend                     2     7     3               122.88018    0.00001
   18 Bend                     2     7     5               110.81835   -0.00003
   19 Bend                     3     7     5               126.29654    0.00002
   20 Bend                     4     5     6               107.71233   -0.00001
   21 Bend                     4     5     7               112.82065   -0.00000
   22 Bend                     4     5     8               110.14599   -0.00001
   23 Bend                     5     4    11               112.15775   -0.00000
   24 Bend                     5     4    12               114.31792    0.00000
   25 Bend                     5     6     9               108.45710    0.00003
   26 Bend                     5     6    10               108.11540    0.00001
   27 Bend                     6     1    13               111.32843    0.00002
   28 Bend                     6     5     7               108.13021    0.00000
   29 Bend                     6     5     8               109.94060   -0.00000
   30 Bend                     7     2    14               112.25836    0.00001
   31 Bend                     7     5     8               108.05830    0.00003
   32 Bend                     9     6    10               108.63642   -0.00001
   33 Bend                    11     4    12               111.26535   -0.00001
   34 Torsion                  1     6     5     4         160.73333   -0.00000
   35 Torsion                  1     6     5     7          38.52539    0.00001
   36 Torsion                  1     6     5     8         -79.23489   -0.00002
   37 Torsion                  2     7     5     4         157.54556    0.00002
   38 Torsion                  2     7     5     6         -83.43551   -0.00000
   39 Torsion                  2     7     5     8          35.52545    0.00001
   40 Torsion                  3     7     2    14          -4.44584   -0.00002
   41 Torsion                  3     7     5     4         -23.24796    0.00001
   42 Torsion                  3     7     5     6          95.77097   -0.00001
   43 Torsion                  3     7     5     8        -145.26807    0.00000
   44 Torsion                  4     5     6     9         -73.61185   -0.00000
   45 Torsion                  4     5     6    10          44.01108    0.00001
   46 Torsion                  5     6     1    13          49.63820    0.00001
   47 Torsion                  5     7     2    14         174.79262   -0.00003
   48 Torsion                  6     5     4    11         -75.64976   -0.00001
   49 Torsion                  6     5     4    12         156.48816    0.00001
   50 Torsion                  7     5     4    11          43.61157   -0.00002
   51 Torsion                  7     5     4    12         -84.25052   -0.00000
   52 Torsion                  7     5     6     9         164.18020    0.00001
   53 Torsion                  7     5     6    10         -78.19686    0.00002
   54 Torsion                  8     5     4    11         164.44843    0.00000
   55 Torsion                  8     5     4    12          36.58634    0.00002
   56 Torsion                  8     5     6     9          46.41992   -0.00002
   57 Torsion                  8     5     6    10         164.04286   -0.00001
   58 Torsion                  9     6     1    13         -73.70749   -0.00002
   59 Torsion                 10     6     1    13         167.72286    0.00002



                         Geometry "geometry" -> "geometry"
                         ---------------------------------

 Output coordinates in angstroms (scale by  1.889725989 to convert to a.u.)

  No.       Tag          Charge          X              Y              Z
 ---- ---------------- ---------- -------------- -------------- --------------
    1 O                    8.0000     0.95413075    -1.78653203    -0.44982384
    2 O                    8.0000     1.56062547     0.67131254     0.68473994
    3 O                    8.0000     0.25912701     1.67359884    -0.85184802
    4 N                    7.0000    -2.00642106     0.31588687     0.20361172
    5 C                    6.0000    -0.64938014    -0.13124822     0.47944015
    6 C                    6.0000    -0.43187722    -1.46479098    -0.27136398
    7 C                    6.0000     0.39527079     0.84735072     0.00918477
    8 H                    1.0000    -0.51524427    -0.27989797     1.54045985
    9 H                    1.0000    -0.97737251    -2.24236976     0.24654689
   10 H                    1.0000    -0.83913668    -1.36090623    -1.26376779
   11 H                    1.0000    -2.09850160     0.70027789    -0.72091823
   12 H                    1.0000    -2.38553546     0.93606377     0.89488785
   13 H                    1.0000     1.44193513    -1.71130432     0.38035768
   14 H                    1.0000     2.27129532     1.23502927     0.34381961

      Atomic Mass 
      ----------- 

      O                 15.994910
      N                 14.003070
      C                 12.000000
      H                  1.007825


 Effective nuclear repulsion energy (a.u.)     328.0213152679

            Nuclear Dipole moment (a.u.) 
            ----------------------------
        X                 Y               Z
 ---------------- ---------------- ----------------
     1.7529835478    -1.0147742288    -1.4838539553


                Final and change from initial internal coordinates
                --------------------------------------------------



                                Z-matrix (autoz)
                                -------- 

 Units are Angstrom for bonds and degrees for angles

      Type          Name      I     J     K     L     M      Value       Change
      ----------- --------  ----- ----- ----- ----- ----- ---------- ----------
    1 Stretch                  1     6                       1.43401    0.01027
    2 Stretch                  1    13                       0.96582   -0.00662
    3 Stretch                  2     7                       1.35846   -0.00044
    4 Stretch                  2    14                       0.96905   -0.01195
    5 Stretch                  3     7                       1.20108   -0.02162
    6 Stretch                  4     5                       1.45519   -0.00681
    7 Stretch                  4    11                       1.00548   -0.01384
    8 Stretch                  4    12                       1.00310   -0.01604
    9 Stretch                  5     6                       1.54575    0.01968
   10 Stretch                  5     7                       1.50668   -0.01001
   11 Stretch                  5     8                       1.07975   -0.01602
   12 Stretch                  6     9                       1.08186   -0.01350
   13 Stretch                  6    10                       1.07774   -0.01777
   14 Bend                     1     6     5               112.95510    3.55664
   15 Bend                     1     6     9               112.68452    4.31802
   16 Bend                     1     6    10               105.79921   -1.59019
   17 Bend                     2     7     3               122.88018   -0.35048
   18 Bend                     2     7     5               110.81835    0.34586
   19 Bend                     3     7     5               126.29654    0.00073
   20 Bend                     4     5     6               107.71233   -2.08858
   21 Bend                     4     5     7               112.82065    5.42656
   22 Bend                     4     5     8               110.14599    1.16314
   23 Bend                     5     4    11               112.15775    1.93325
   24 Bend                     5     4    12               114.31792    4.35852
   25 Bend                     5     6     9               108.45710   -3.12940
   26 Bend                     5     6    10               108.11540   -3.53873
   27 Bend                     6     1    13               111.32843    3.83865
   28 Bend                     6     5     7               108.13021   -2.49103
   29 Bend                     6     5     8               109.94060   -1.12881
   30 Bend                     7     2    14               112.25836    0.38850
   31 Bend                     7     5     8               108.05830   -0.82404
   32 Bend                     9     6    10               108.63642    0.33385
   33 Bend                    11     4    12               111.26535    4.58936
   34 Torsion                  1     6     5     4         160.73333  -19.47637
   35 Torsion                  1     6     5     7          38.52539  -23.32750
   36 Torsion                  1     6     5     8         -79.23489  -20.05531
   37 Torsion                  2     7     5     4         157.54556    9.52566
   38 Torsion                  2     7     5     6         -83.43551    8.73168
   39 Torsion                  2     7     5     8          35.52545    5.37171
   40 Torsion                  3     7     2    14          -4.44584   -4.55297
   41 Torsion                  3     7     5     4         -23.24796    9.09308
   42 Torsion                  3     7     5     6          95.77097    8.29910
   43 Torsion                  3     7     5     8        -145.26807    4.93913
   44 Torsion                  4     5     6     9         -73.61185  -13.72735
   45 Torsion                  4     5     6    10          44.01108  -17.46676
   46 Torsion                  5     6     1    13          49.63820  -10.41576
   47 Torsion                  5     7     2    14         174.79262   -4.96672
   48 Torsion                  6     5     4    11         -75.64976  -15.81465
   49 Torsion                  6     5     4    12         156.48816  -26.34428
   50 Torsion                  7     5     4    11          43.61157  -16.88776
   51 Torsion                  7     5     4    12         -84.25052  -27.41740
   52 Torsion                  7     5     6     9         164.18020  -17.57848
   53 Torsion                  7     5     6    10         -78.19686  -21.31789
   54 Torsion                  8     5     4    11         164.44843  -13.85176
   55 Torsion                  8     5     4    12          36.58634  -24.38140
   56 Torsion                  8     5     6     9          46.41992  -14.30628
   57 Torsion                  8     5     6    10         164.04286  -18.04570
   58 Torsion                  9     6     1    13         -73.70749  -11.89838
   59 Torsion                 10     6     1    13         167.72286  -13.67848

 ==============================================================================
                                internuclear distances
 ------------------------------------------------------------------------------
       center one      |      center two      | atomic units |  angstroms
 ------------------------------------------------------------------------------
    5 C                |   4 N                |     2.74991  |     1.45519
    6 C                |   1 O                |     2.70989  |     1.43401
    6 C                |   5 C                |     2.92105  |     1.54575
    7 C                |   2 O                |     2.56712  |     1.35846
    7 C                |   3 O                |     2.26972  |     1.20108
    7 C                |   5 C                |     2.84722  |     1.50668
    8 H                |   5 C                |     2.04042  |     1.07975
    9 H                |   6 C                |     2.04442  |     1.08186
   10 H                |   6 C                |     2.03663  |     1.07774
   11 H                |   4 N                |     1.90008  |     1.00548
   12 H                |   4 N                |     1.89558  |     1.00310
   13 H                |   1 O                |     1.82514  |     0.96582
   14 H                |   2 O                |     1.83124  |     0.96905
 ------------------------------------------------------------------------------
                         number of included internuclear distances:         13
 ==============================================================================



 ==============================================================================
                                 internuclear angles
 ------------------------------------------------------------------------------
        center 1       |       center 2       |       center 3       |  degrees
 ------------------------------------------------------------------------------
    6 C                |   1 O                |  13 H                |   111.33
    7 C                |   2 O                |  14 H                |   112.26
    5 C                |   4 N                |  11 H                |   112.16
    5 C                |   4 N                |  12 H                |   114.32
   11 H                |   4 N                |  12 H                |   111.27
    4 N                |   5 C                |   6 C                |   107.71
    4 N                |   5 C                |   7 C                |   112.82
    4 N                |   5 C                |   8 H                |   110.15
    6 C                |   5 C                |   7 C                |   108.13
    6 C                |   5 C                |   8 H                |   109.94
    7 C                |   5 C                |   8 H                |   108.06
    1 O                |   6 C                |   5 C                |   112.96
    1 O                |   6 C                |   9 H                |   112.68
    1 O                |   6 C                |  10 H                |   105.80
    5 C                |   6 C                |   9 H                |   108.46
    5 C                |   6 C                |  10 H                |   108.12
    9 H                |   6 C                |  10 H                |   108.64
    2 O                |   7 C                |   3 O                |   122.88
    2 O                |   7 C                |   5 C                |   110.82
    3 O                |   7 C                |   5 C                |   126.30
 ------------------------------------------------------------------------------
                            number of included internuclear angles:         20
 ==============================================================================



 ------------------------------------------------------------------------
 scf optimize failed                                                                                0
 ------------------------------------------------------------------------
 ------------------------------------------------------------------------
  current input line : 
    23: task scf optimize
 ------------------------------------------------------------------------
 ------------------------------------------------------------------------
 This type of error is most commonly associated with calculations not reaching convergence criteria
 ------------------------------------------------------------------------
 For more information see the NWChem manual at http://www.nwchem-sw.org/index.php/NWChem_Documentation


 For further details see manual section:                                                                                                                                                                                                                                                                
0:0:scf optimize failed:: -1
(rank:0 hostname:feranchuk1 pid:9636):ARMCI DASSERT fail. ../../ga-5-3/armci/src/common/armci.c:ARMCI_Error():208 cond:0
