 argument  1 = serine.nw2
                                         
                                         


              Northwest Computational Chemistry Package (NWChem) 6.5
              ------------------------------------------------------


                    Environmental Molecular Sciences Laboratory
                       Pacific Northwest National Laboratory
                                Richland, WA 99352

                              Copyright (c) 1994-2014
                       Pacific Northwest National Laboratory
                            Battelle Memorial Institute

             NWChem is an open-source computational chemistry package
                        distributed under the terms of the
                      Educational Community License (ECL) 2.0
             A copy of the license is included with this distribution
                              in the LICENSE.TXT file

                                  ACKNOWLEDGMENT
                                  --------------

            This software and its documentation were developed at the
            EMSL at Pacific Northwest National Laboratory, a multiprogram
            national laboratory, operated for the U.S. Department of Energy
            by Battelle under Contract Number DE-AC05-76RL01830. Support
            for this work was provided by the Department of Energy Office
            of Biological and Environmental Research, Office of Basic
            Energy Sciences, and the Office of Advanced Scientific Computing.


           Job information
           ---------------

    hostname        = feranchuk1
    program         = nwchem
    date            = Fri Nov  2 01:41:34 2018

    compiled        = Sun_Nov_23_19:30:00_2014
    source          = /build/nwchem-bsfQMB/nwchem-6.5+r26243
    nwchem branch   = 6.5
    nwchem revision = 26243
    ga revision     = 10506
    input           = serine.nw2
    prefix          = serine.
    data base       = ./serine.db
    status          = restart
    nproc           =        1
    time left       =     -1s



           Memory information
           ------------------

    heap     =   13107194 doubles =    100.0 Mbytes
    stack    =   13107195 doubles =    100.0 Mbytes
    global   =   26214400 doubles =    200.0 Mbytes (distinct from heap & stack)
    total    =   52428789 doubles =    400.0 Mbytes
    verify   = yes
    hardfail = no 


           Directory information
           ---------------------

  0 permanent = .
  0 scratch   = .


           Previous task information
           -------------------------

    Theory    = scf                             
    Operation = optimize                      
    Status    = fail                          
    Qmmm      = F
    Ignore    = F


           Geometries in the database
           --------------------------

       Name                              Natoms  Last Modified
       --------------------------------  ------  ------------------------
    1  driverinitial                         14  Fri Nov  2 01:32:49 2018  
    2  geometry                              14  Fri Nov  2 01:35:18 2018  

  The geometry named "geometry" is the default for restart



           Basis sets in the database
           --------------------------

       Name                              Natoms  Last Modified
        --------------------------------  ------  ------------------------
    1  ao basis                               4  Fri Nov  2 01:32:49 2018  

  The basis set named "ao basis" is the default AO basis for restart




                                NWChem Input Module
                                -------------------


                                      serine
                                      ------

 Scaling coordinates for geometry "geometry" by  1.889725989
 (inverse scale =  0.529177249)

 C1  symmetry detected

          ------
          auto-z
          ------


                             Geometry "geometry" -> ""
                             -------------------------

 Output coordinates in angstroms (scale by  1.889725989 to convert to a.u.)

  No.       Tag          Charge          X              Y              Z
 ---- ---------------- ---------- -------------- -------------- --------------
    1 O                    8.0000     0.93088854    -1.93137173    -0.26663767
    2 O                    8.0000     1.53260863     0.87104661     0.62990568
    3 O                    8.0000     0.08512237     1.71785516    -0.90320051
    4 N                    7.0000    -1.94283604     0.29298197     0.36985788
    5 C                    6.0000    -0.56968223    -0.19852066     0.47143381
    6 C                    6.0000    -0.40726592    -1.45754029    -0.37556098
    7 C                    6.0000     0.34450092     0.90344645    -0.02886211
    8 H                    1.0000    -0.33993405    -0.39939980     1.52384867
    9 H                    1.0000    -1.08334468    -2.25426969    -0.04698950
   10 H                    1.0000    -0.59903385    -1.25904974    -1.43573053
   11 H                    1.0000    -2.16758763     0.51285721    -0.59975829
   12 H                    1.0000    -2.04199824     1.15965735     0.89681811
   13 H                    1.0000     1.09540295    -2.12933826     0.67111472
   14 H                    1.0000     2.14207475     1.57411577     0.31908734

      Atomic Mass 
      ----------- 

      O                 15.994910
      N                 14.003070
      C                 12.000000
      H                  1.007825


 Effective nuclear repulsion energy (a.u.)     325.3741727294

            Nuclear Dipole moment (a.u.) 
            ----------------------------
        X                 Y               Z
 ---------------- ---------------- ----------------
    -0.0000000000     0.0000000000     0.0000000000



                                Z-matrix (autoz)
                                -------- 

 Units are Angstrom for bonds and degrees for angles

      Type          Name      I     J     K     L     M      Value
      ----------- --------  ----- ----- ----- ----- ----- ----------
    1 Stretch                  1     6                       1.42374
    2 Stretch                  1    13                       0.97244
    3 Stretch                  2     7                       1.35891
    4 Stretch                  2    14                       0.98100
    5 Stretch                  3     7                       1.22270
    6 Stretch                  4     5                       1.46200
    7 Stretch                  4    11                       1.01932
    8 Stretch                  4    12                       1.01914
    9 Stretch                  5     6                       1.52608
   10 Stretch                  5     7                       1.51669
   11 Stretch                  5     8                       1.09577
   12 Stretch                  6     9                       1.09536
   13 Stretch                  6    10                       1.09551
   14 Bend                     1     6     5               109.39846
   15 Bend                     1     6     9               108.36650
   16 Bend                     1     6    10               107.38940
   17 Bend                     2     7     3               123.23067
   18 Bend                     2     7     5               110.47249
   19 Bend                     3     7     5               126.29581
   20 Bend                     4     5     6               109.80091
   21 Bend                     4     5     7               107.39409
   22 Bend                     4     5     8               108.98285
   23 Bend                     5     4    11               110.22450
   24 Bend                     5     4    12               109.95940
   25 Bend                     5     6     9               111.58650
   26 Bend                     5     6    10               111.65413
   27 Bend                     6     1    13               107.48978
   28 Bend                     6     5     7               110.62123
   29 Bend                     6     5     8               111.06940
   30 Bend                     7     2    14               111.86987
   31 Bend                     7     5     8               108.88233
   32 Bend                     9     6    10               108.30257
   33 Bend                    11     4    12               106.67599
   34 Torsion                  1     6     5     4        -179.79029
   35 Torsion                  1     6     5     7          61.85289
   36 Torsion                  1     6     5     8         -59.17958
   37 Torsion                  2     7     5     4         148.01990
   38 Torsion                  2     7     5     6         -92.16719
   39 Torsion                  2     7     5     8          30.15374
   40 Torsion                  3     7     2    14           0.10713
   41 Torsion                  3     7     5     4         -32.34104
   42 Torsion                  3     7     5     6          87.47186
   43 Torsion                  3     7     5     8        -150.20720
   44 Torsion                  4     5     6     9         -59.88450
   45 Torsion                  4     5     6    10          61.47785
   46 Torsion                  5     6     1    13          60.05396
   47 Torsion                  5     7     2    14         179.75935
   48 Torsion                  6     5     4    11         -59.83510
   49 Torsion                  6     5     4    12        -177.16756
   50 Torsion                  7     5     4    11          60.49933
   51 Torsion                  7     5     4    12         -56.83312
   52 Torsion                  7     5     6     9        -178.24132
   53 Torsion                  7     5     6    10         -56.87897
   54 Torsion                  8     5     4    11         178.30019
   55 Torsion                  8     5     4    12          60.96774
   56 Torsion                  8     5     6     9          60.72621
   57 Torsion                  8     5     6    10        -177.91144
   58 Torsion                  9     6     1    13         -61.80910
   59 Torsion                 10     6     1    13        -178.59866


            XYZ format geometry
            -------------------
    14
 geometry
 O                     0.93088854    -1.93137173    -0.26663767
 O                     1.53260863     0.87104661     0.62990568
 O                     0.08512237     1.71785516    -0.90320051
 N                    -1.94283604     0.29298197     0.36985788
 C                    -0.56968223    -0.19852066     0.47143381
 C                    -0.40726592    -1.45754029    -0.37556098
 C                     0.34450092     0.90344645    -0.02886211
 H                    -0.33993405    -0.39939980     1.52384867
 H                    -1.08334468    -2.25426969    -0.04698950
 H                    -0.59903385    -1.25904974    -1.43573053
 H                    -2.16758763     0.51285721    -0.59975829
 H                    -2.04199824     1.15965735     0.89681811
 H                     1.09540295    -2.12933826     0.67111472
 H                     2.14207475     1.57411577     0.31908734

 ==============================================================================
                                internuclear distances
 ------------------------------------------------------------------------------
       center one      |      center two      | atomic units |  angstroms
 ------------------------------------------------------------------------------
    5 C                |   4 N                |     2.76278  |     1.46200
    6 C                |   1 O                |     2.69048  |     1.42374
    6 C                |   5 C                |     2.88387  |     1.52608
    7 C                |   2 O                |     2.56796  |     1.35891
    7 C                |   3 O                |     2.31058  |     1.22270
    7 C                |   5 C                |     2.86613  |     1.51669
    8 H                |   5 C                |     2.07071  |     1.09577
    9 H                |   6 C                |     2.06994  |     1.09536
   10 H                |   6 C                |     2.07021  |     1.09551
   11 H                |   4 N                |     1.92624  |     1.01932
   12 H                |   4 N                |     1.92590  |     1.01914
   13 H                |   1 O                |     1.83764  |     0.97244
   14 H                |   2 O                |     1.85382  |     0.98100
 ------------------------------------------------------------------------------
                         number of included internuclear distances:         13
 ==============================================================================



 ==============================================================================
                                 internuclear angles
 ------------------------------------------------------------------------------
        center 1       |       center 2       |       center 3       |  degrees
 ------------------------------------------------------------------------------
    6 C                |   1 O                |  13 H                |   107.49
    7 C                |   2 O                |  14 H                |   111.87
    5 C                |   4 N                |  11 H                |   110.22
    5 C                |   4 N                |  12 H                |   109.96
   11 H                |   4 N                |  12 H                |   106.68
    4 N                |   5 C                |   6 C                |   109.80
    4 N                |   5 C                |   7 C                |   107.39
    4 N                |   5 C                |   8 H                |   108.98
    6 C                |   5 C                |   7 C                |   110.62
    6 C                |   5 C                |   8 H                |   111.07
    7 C                |   5 C                |   8 H                |   108.88
    1 O                |   6 C                |   5 C                |   109.40
    1 O                |   6 C                |   9 H                |   108.37
    1 O                |   6 C                |  10 H                |   107.39
    5 C                |   6 C                |   9 H                |   111.59
    5 C                |   6 C                |  10 H                |   111.65
    9 H                |   6 C                |  10 H                |   108.30
    2 O                |   7 C                |   3 O                |   123.23
    2 O                |   7 C                |   5 C                |   110.47
    3 O                |   7 C                |   5 C                |   126.30
 ------------------------------------------------------------------------------
                            number of included internuclear angles:         20
 ==============================================================================



                      Basis "ao basis" -> "" (cartesian)
                      -----
  C (Carbon)
  ----------
            Exponent  Coefficients 
       -------------- ---------------------------------------------------------
  1 S  1.72256000E+02  0.061767
  1 S  2.59109000E+01  0.358794
  1 S  5.53335000E+00  0.700713

  2 S  3.66498000E+00 -0.395897
  2 S  7.70545000E-01  1.215840

  3 P  3.66498000E+00  0.236460
  3 P  7.70545000E-01  0.860619

  4 S  1.95857000E-01  1.000000

  5 P  1.95857000E-01  1.000000

  H (Hydrogen)
  ------------
            Exponent  Coefficients 
       -------------- ---------------------------------------------------------
  1 S  5.44717800E+00  0.156285
  1 S  8.24547000E-01  0.904691

  2 S  1.83192000E-01  1.000000

  O (Oxygen)
  ----------
            Exponent  Coefficients 
       -------------- ---------------------------------------------------------
  1 S  3.22037000E+02  0.059239
  1 S  4.84308000E+01  0.351500
  1 S  1.04206000E+01  0.707658

  2 S  7.40294000E+00 -0.404453
  2 S  1.57620000E+00  1.221560

  3 P  7.40294000E+00  0.244586
  3 P  1.57620000E+00  0.853955

  4 S  3.73684000E-01  1.000000

  5 P  3.73684000E-01  1.000000

  N (Nitrogen)
  ------------
            Exponent  Coefficients 
       -------------- ---------------------------------------------------------
  1 S  2.42766000E+02  0.059866
  1 S  3.64851000E+01  0.352955
  1 S  7.81449000E+00  0.706513

  2 S  5.42522000E+00 -0.413301
  2 S  1.14915000E+00  1.224420

  3 P  5.42522000E+00  0.237972
  3 P  1.14915000E+00  0.858953

  4 S  2.83205000E-01  1.000000

  5 P  2.83205000E-01  1.000000



 Summary of "ao basis" -> "" (cartesian)
 ------------------------------------------------------------------------------
       Tag                 Description            Shells   Functions and Types
 ---------------- ------------------------------  ------  ---------------------
 C                           3-21g                   5        9   3s2p
 H                           3-21g                   2        2   2s
 O                           3-21g                   5        9   3s2p
 N                           3-21g                   5        9   3s2p




                           NWChem Geometry Optimization
                           ----------------------------




                                      serine


 maximum gradient threshold         (gmax) =   0.000450
 rms gradient threshold             (grms) =   0.000300
 maximum cartesian step threshold   (xmax) =   0.001800
 rms cartesian step threshold       (xrms) =   0.001200
 fixed trust radius                (trust) =   0.300000
 maximum step size to saddle      (sadstp) =   0.100000
 energy precision                  (eprec) =   1.0D-07
 maximum number of steps          (nptopt) =   20
 initial hessian option           (inhess) =    0
 line search option               (linopt) =    1
 hessian update option            (modupd) =    1
 saddle point option              (modsad) =    0
 initial eigen-mode to follow     (moddir) =    0
 initial variable to follow       (vardir) =    0
 follow first negative mode     (firstneg) =    T
 apply conjugacy                    (opcg) =    F
 source of zmatrix                         =   autoz   


          -------------------
          Energy Minimization
          -------------------


 Names of Z-matrix variables 
    1              2              3              4              5         
    6              7              8              9             10         
   11             12             13             14             15         
   16             17             18             19             20         
   21             22             23             24             25         
   26             27             28             29             30         
   31             32             33             34             35         
   36             37             38             39             40         
   41             42             43             44             45         
   46             47             48             49             50         
   51             52             53             54             55         
   56             57             58             59         

 Variables with the same non-blank name are constrained to be equal


 Using old Hessian from previous optimization

          --------
          Step   0
          --------


                         Geometry "geometry" -> "geometry"
                         ---------------------------------

 Output coordinates in angstroms (scale by  1.889725989 to convert to a.u.)

  No.       Tag          Charge          X              Y              Z
 ---- ---------------- ---------- -------------- -------------- --------------
    1 O                    8.0000     0.93088854    -1.93137173    -0.26663767
    2 O                    8.0000     1.53260863     0.87104661     0.62990568
    3 O                    8.0000     0.08512237     1.71785516    -0.90320051
    4 N                    7.0000    -1.94283604     0.29298197     0.36985788
    5 C                    6.0000    -0.56968223    -0.19852066     0.47143381
    6 C                    6.0000    -0.40726592    -1.45754029    -0.37556098
    7 C                    6.0000     0.34450092     0.90344645    -0.02886211
    8 H                    1.0000    -0.33993405    -0.39939980     1.52384867
    9 H                    1.0000    -1.08334468    -2.25426969    -0.04698950
   10 H                    1.0000    -0.59903385    -1.25904974    -1.43573053
   11 H                    1.0000    -2.16758763     0.51285721    -0.59975829
   12 H                    1.0000    -2.04199824     1.15965735     0.89681811
   13 H                    1.0000     1.09540295    -2.12933826     0.67111472
   14 H                    1.0000     2.14207475     1.57411577     0.31908734

      Atomic Mass 
      ----------- 

      O                 15.994910
      N                 14.003070
      C                 12.000000
      H                  1.007825


 Effective nuclear repulsion energy (a.u.)     325.3741727294

            Nuclear Dipole moment (a.u.) 
            ----------------------------
        X                 Y               Z
 ---------------- ---------------- ----------------
    -0.0000000000     0.0000000000     0.0000000000

                                 NWChem SCF Module
                                 -----------------


                                      serine



  ao basis        = "ao basis"
  functions       =    77
  atoms           =    14
  closed shells   =    28
  open shells     =     0
  charge          =   0.00
  wavefunction    = RHF 
  input vectors   = ./serine.movecs
  output vectors  = ./serine.movecs
  use symmetry    = F
  symmetry adapt  = F


 Summary of "ao basis" -> "ao basis" (cartesian)
 ------------------------------------------------------------------------------
       Tag                 Description            Shells   Functions and Types
 ---------------- ------------------------------  ------  ---------------------
 C                           3-21g                   5        9   3s2p
 H                           3-21g                   2        2   2s
 O                           3-21g                   5        9   3s2p
 N                           3-21g                   5        9   3s2p



 Forming initial guess at       0.1s


 Loading old vectors from job with title :

serine


 Starting SCF solution at       0.1s



 ----------------------------------------------
         Quadratically convergent ROHF

 Convergence threshold     :          1.000E-04
 Maximum no. of iterations :           30
 Final Fock-matrix accuracy:          1.000E-07
 ----------------------------------------------


 Integral file          = ./serine.aoints.0
 Record size in doubles =  65536        No. of integs per rec  =  43688
 Max. records in memory =    143        Max. records in file   =  16221
 No. of bits per label  =      8        No. of bits per value  =     64


 #quartets = 5.261D+05 #integrals = 3.259D+06 #direct =  0.0% #cached =100.0%


              iter       energy          gnorm     gmax       time
             ----- ------------------- --------- --------- --------
                 1     -394.3913483676  1.01D+00  1.60D-01      1.2
                 2     -394.4886177584  2.48D-01  3.47D-02      1.5
                 3     -394.4924926978  1.06D-02  2.34D-03      2.0
                 4     -394.4925092429  4.19D-05  7.19D-06      2.8


       Final RHF  results 
       ------------------ 

         Total SCF energy =   -394.492509242907
      One-electron energy =  -1186.177724380124
      Two-electron energy =    466.311042407781
 Nuclear repulsion energy =    325.374172729436

        Time for solution =      2.7s


             Final eigenvalues
             -----------------

              1      
    1  -20.5092
    2  -20.4618
    3  -20.4515
    4  -15.4736
    5  -11.3426
    6  -11.2388
    7  -11.2309
    8   -1.4660
    9   -1.3663
   10   -1.3631
   11   -1.2077
   12   -1.0088
   13   -0.9075
   14   -0.7971
   15   -0.7265
   16   -0.6920
   17   -0.6835
   18   -0.6554
   19   -0.6333
   20   -0.6101
   21   -0.5843
   22   -0.5672
   23   -0.5448
   24   -0.4863
   25   -0.4752
   26   -0.4582
   27   -0.4396
   28   -0.3964
   29    0.1649
   30    0.2557
   31    0.2594
   32    0.2659
   33    0.2902
   34    0.3382
   35    0.3501
   36    0.3584
   37    0.4206
   38    0.4446

                       ROHF Final Molecular Orbital Analysis
                       -------------------------------------

 Vector    8  Occ=2.000000D+00  E=-1.466025D+00
              MO Center=  8.4D-01,  1.2D+00,  2.5D-04, r^2= 1.2D+00
   Bfn.  Coefficient  Atom+Function         Bfn.  Coefficient  Atom+Function  
  ----- ------------  ---------------      ----- ------------  ---------------
    15      0.504346   2 O  s                24      0.410038   3 O  s         
    10     -0.161833   2 O  s         

 Vector    9  Occ=2.000000D+00  E=-1.366295D+00
              MO Center=  6.9D-01,  1.1D+00, -1.7D-01, r^2= 1.8D+00
   Bfn.  Coefficient  Atom+Function         Bfn.  Coefficient  Atom+Function  
  ----- ------------  ---------------      ----- ------------  ---------------
    24     -0.549066   3 O  s                15      0.511965   2 O  s         
    19      0.168195   3 O  s                20     -0.156520   3 O  s         
    10     -0.152798   2 O  s                 6      0.150093   1 O  s         

 Vector   10  Occ=2.000000D+00  E=-1.363072D+00
              MO Center=  7.2D-01, -1.7D+00, -1.3D-01, r^2= 1.1D+00
   Bfn.  Coefficient  Atom+Function         Bfn.  Coefficient  Atom+Function  
  ----- ------------  ---------------      ----- ------------  ---------------
     6      0.665156   1 O  s                 1     -0.213157   1 O  s         
     2      0.197687   1 O  s         

 Vector   11  Occ=2.000000D+00  E=-1.207651D+00
              MO Center= -1.4D+00,  2.4D-01,  3.0D-01, r^2= 1.4D+00
   Bfn.  Coefficient  Atom+Function         Bfn.  Coefficient  Atom+Function  
  ----- ------------  ---------------      ----- ------------  ---------------
    33      0.540340   4 N  s                42      0.285077   5 C  s         
    28     -0.183048   4 N  s                29      0.164088   4 N  s         

 Vector   12  Occ=2.000000D+00  E=-1.008790D+00
              MO Center= -5.8D-01, -2.8D-01,  1.5D-01, r^2= 2.8D+00
   Bfn.  Coefficient  Atom+Function         Bfn.  Coefficient  Atom+Function  
  ----- ------------  ---------------      ----- ------------  ---------------
    33      0.408721   4 N  s                42     -0.400035   5 C  s         
    51     -0.275662   6 C  s                 6      0.223612   1 O  s         

 Vector   13  Occ=2.000000D+00  E=-9.074986D-01
              MO Center=  4.6D-02, -5.3D-01, -3.2D-02, r^2= 3.3D+00
   Bfn.  Coefficient  Atom+Function         Bfn.  Coefficient  Atom+Function  
  ----- ------------  ---------------      ----- ------------  ---------------
    51      0.474171   6 C  s                60     -0.225553   7 C  s         
    42     -0.193586   5 C  s                 6     -0.178620   1 O  s         

 Vector   14  Occ=2.000000D+00  E=-7.970519D-01
              MO Center=  3.4D-01,  1.9D-01,  2.9D-01, r^2= 3.8D+00
   Bfn.  Coefficient  Atom+Function         Bfn.  Coefficient  Atom+Function  
  ----- ------------  ---------------      ----- ------------  ---------------
    42      0.397457   5 C  s                60     -0.256764   7 C  s         
    12      0.239988   2 O  px               16      0.231127   2 O  px        
    51     -0.195734   6 C  s                24      0.156938   3 O  s         

 Vector   15  Occ=2.000000D+00  E=-7.265358D-01
              MO Center= -1.3D-02,  9.5D-02,  1.1D-01, r^2= 3.4D+00
   Bfn.  Coefficient  Atom+Function         Bfn.  Coefficient  Atom+Function  
  ----- ------------  ---------------      ----- ------------  ---------------
    57      0.205160   7 C  px               16     -0.184677   2 O  px        
    12     -0.179763   2 O  px               41      0.170065   5 C  pz        

 Vector   16  Occ=2.000000D+00  E=-6.919950D-01
              MO Center= -2.1D-01, -1.7D-01,  5.6D-02, r^2= 4.2D+00
   Bfn.  Coefficient  Atom+Function         Bfn.  Coefficient  Atom+Function  
  ----- ------------  ---------------      ----- ------------  ---------------
    24      0.201076   3 O  s                 5     -0.175046   1 O  pz        
     9     -0.168948   1 O  pz               32      0.154697   4 N  pz        

 Vector   17  Occ=2.000000D+00  E=-6.835405D-01
              MO Center=  1.3D-01,  9.3D-01, -2.2D-01, r^2= 3.4D+00
   Bfn.  Coefficient  Atom+Function         Bfn.  Coefficient  Atom+Function  
  ----- ------------  ---------------      ----- ------------  ---------------
    24      0.352175   3 O  s                17     -0.226622   2 O  py        
    23     -0.216929   3 O  pz               27     -0.210864   3 O  pz        
    13     -0.206189   2 O  py               15      0.192338   2 O  s         
    58     -0.160474   7 C  py        

 Vector   18  Occ=2.000000D+00  E=-6.553531D-01
              MO Center=  2.2D-01, -6.4D-01, -5.2D-02, r^2= 3.8D+00
   Bfn.  Coefficient  Atom+Function         Bfn.  Coefficient  Atom+Function  
  ----- ------------  ---------------      ----- ------------  ---------------
    18      0.195961   2 O  pz               42     -0.191711   5 C  s         
    14      0.187125   2 O  pz                8     -0.181394   1 O  py        
     4     -0.178081   1 O  py               49     -0.161901   6 C  py        
    48     -0.160040   6 C  px               57     -0.153803   7 C  px        
    61     -0.153977   7 C  px               66      0.152343   9 H  s         

 Vector   19  Occ=2.000000D+00  E=-6.333477D-01
              MO Center= -4.1D-01, -1.3D-01,  5.9D-02, r^2= 4.1D+00
   Bfn.  Coefficient  Atom+Function         Bfn.  Coefficient  Atom+Function  
  ----- ------------  ---------------      ----- ------------  ---------------
     6      0.187415   1 O  s                31     -0.182431   4 N  py        
    39     -0.176755   5 C  px               35     -0.172629   4 N  py        
    54     -0.153534   6 C  pz               30      0.151347   4 N  px        

 Vector   20  Occ=2.000000D+00  E=-6.101446D-01
              MO Center= -1.5D-01,  3.0D-02, -1.6D-02, r^2= 4.2D+00
   Bfn.  Coefficient  Atom+Function         Bfn.  Coefficient  Atom+Function  
  ----- ------------  ---------------      ----- ------------  ---------------
    17      0.201930   2 O  py               32     -0.195637   4 N  pz        
    13      0.184093   2 O  py               36     -0.182727   4 N  pz        
     7     -0.157289   1 O  px        

 Vector   21  Occ=2.000000D+00  E=-5.842983D-01
              MO Center= -1.4D-02, -3.9D-01, -4.8D-02, r^2= 4.2D+00
   Bfn.  Coefficient  Atom+Function         Bfn.  Coefficient  Atom+Function  
  ----- ------------  ---------------      ----- ------------  ---------------
    17      0.204796   2 O  py               13      0.191574   2 O  py        
    49      0.183228   6 C  py               53      0.174744   6 C  py        
     7      0.160655   1 O  px                9      0.158280   1 O  pz        

 Vector   22  Occ=2.000000D+00  E=-5.671880D-01
              MO Center=  6.7D-01,  6.3D-01,  1.2D-01, r^2= 3.3D+00
   Bfn.  Coefficient  Atom+Function         Bfn.  Coefficient  Atom+Function  
  ----- ------------  ---------------      ----- ------------  ---------------
    18      0.307585   2 O  pz               14      0.270223   2 O  pz        
    15      0.221679   2 O  s                27      0.214234   3 O  pz        
    23      0.192865   3 O  pz               58      0.189053   7 C  py        
    17     -0.185914   2 O  py               13     -0.170524   2 O  py        
    26     -0.165228   3 O  py               42     -0.158141   5 C  s         

 Vector   23  Occ=2.000000D+00  E=-5.448474D-01
              MO Center= -5.3D-01, -5.2D-01,  2.4D-01, r^2= 3.3D+00
   Bfn.  Coefficient  Atom+Function         Bfn.  Coefficient  Atom+Function  
  ----- ------------  ---------------      ----- ------------  ---------------
    41      0.217878   5 C  pz               45      0.212506   5 C  pz        
    64      0.195838   8 H  s                 7      0.182969   1 O  px        
    34     -0.182320   4 N  px               30     -0.172394   4 N  px        
    39      0.164181   5 C  px               54     -0.160624   6 C  pz        
    65      0.160254   8 H  s                 3      0.159105   1 O  px        

 Vector   24  Occ=2.000000D+00  E=-4.863378D-01
              MO Center=  2.1D-01, -1.2D+00, -2.6D-01, r^2= 3.1D+00
   Bfn.  Coefficient  Atom+Function         Bfn.  Coefficient  Atom+Function  
  ----- ------------  ---------------      ----- ------------  ---------------
     7      0.277738   1 O  px                9     -0.278074   1 O  pz        
     5     -0.236964   1 O  pz                6      0.234127   1 O  s         
     3      0.218325   1 O  px               50      0.214016   6 C  pz        
    69     -0.166432  10 H  s         

 Vector   25  Occ=2.000000D+00  E=-4.751753D-01
              MO Center=  6.4D-01,  8.0D-01, -2.0D-01, r^2= 3.1D+00
   Bfn.  Coefficient  Atom+Function         Bfn.  Coefficient  Atom+Function  
  ----- ------------  ---------------      ----- ------------  ---------------
    18      0.290703   2 O  pz               27     -0.261544   3 O  pz        
    17      0.243834   2 O  py               26     -0.234693   3 O  py        
    14      0.225551   2 O  pz               23     -0.217580   3 O  pz        
     8     -0.201619   1 O  py               22     -0.189071   3 O  py        
    13      0.187308   2 O  py               25      0.171463   3 O  px        

 Vector   26  Occ=2.000000D+00  E=-4.582166D-01
              MO Center=  1.1D-01,  7.7D-01, -4.0D-01, r^2= 3.5D+00
   Bfn.  Coefficient  Atom+Function         Bfn.  Coefficient  Atom+Function  
  ----- ------------  ---------------      ----- ------------  ---------------
    25      0.388593   3 O  px               21      0.344374   3 O  px        
    42      0.278938   5 C  s                26      0.211132   3 O  py        
     8     -0.202377   1 O  py               22      0.188257   3 O  py        
    45     -0.176125   5 C  pz               16      0.170096   2 O  px        
     4     -0.167518   1 O  py        

 Vector   27  Occ=2.000000D+00  E=-4.396191D-01
              MO Center=  1.7D-01, -8.6D-01, -2.1D-01, r^2= 3.9D+00
   Bfn.  Coefficient  Atom+Function         Bfn.  Coefficient  Atom+Function  
  ----- ------------  ---------------      ----- ------------  ---------------
     8      0.426323   1 O  py                4      0.344043   1 O  py        
    25      0.213949   3 O  px               44      0.189054   5 C  py        
    21      0.184514   3 O  px               49     -0.172891   6 C  py        
    40      0.165716   5 C  py               67      0.158364   9 H  s         

 Vector   28  Occ=2.000000D+00  E=-3.963873D-01
              MO Center= -1.5D+00,  2.4D-01,  3.2D-01, r^2= 2.3D+00
   Bfn.  Coefficient  Atom+Function         Bfn.  Coefficient  Atom+Function  
  ----- ------------  ---------------      ----- ------------  ---------------
    35      0.363270   4 N  py               34      0.352299   4 N  px        
    31      0.281390   4 N  py               30      0.255469   4 N  px        
    33     -0.242886   4 N  s                60     -0.228862   7 C  s         
    36     -0.177416   4 N  pz               15      0.161205   2 O  s         

 Vector   29  Occ=0.000000D+00  E= 1.649234D-01
              MO Center=  1.2D-01,  6.4D-01, -6.8D-02, r^2= 3.0D+00
   Bfn.  Coefficient  Atom+Function         Bfn.  Coefficient  Atom+Function  
  ----- ------------  ---------------      ----- ------------  ---------------
    51      0.561992   6 C  s                63      0.392919   7 C  pz        
    67     -0.355039   9 H  s                62      0.330805   7 C  py        
    27     -0.313292   3 O  pz               33     -0.314808   4 N  s         
    65     -0.291071   8 H  s                26     -0.273625   3 O  py        
    59      0.271153   7 C  pz               45      0.261465   5 C  pz        

 Vector   30  Occ=0.000000D+00  E= 2.557419D-01
              MO Center=  1.5D+00,  4.8D-01,  5.3D-01, r^2= 5.4D+00
   Bfn.  Coefficient  Atom+Function         Bfn.  Coefficient  Atom+Function  
  ----- ------------  ---------------      ----- ------------  ---------------
    77      1.030301  14 H  s                42     -0.734763   5 C  s         
    15     -0.674758   2 O  s                75      0.614582  13 H  s         
    65      0.519270   8 H  s                 6     -0.407220   1 O  s         
    17     -0.334315   2 O  py               60      0.277277   7 C  s         
     9     -0.263899   1 O  pz               67      0.258833   9 H  s         

 Vector   31  Occ=0.000000D+00  E= 2.594249D-01
              MO Center= -1.3D+00,  3.1D-01,  3.7D-01, r^2= 4.5D+00
   Bfn.  Coefficient  Atom+Function         Bfn.  Coefficient  Atom+Function  
  ----- ------------  ---------------      ----- ------------  ---------------
    33      1.192075   4 N  s                73     -0.852628  12 H  s         
    65     -0.757344   8 H  s                42      0.641166   5 C  s         
    71     -0.612556  11 H  s                51      0.418837   6 C  s         
    43      0.397444   5 C  px               35      0.361394   4 N  py        
    67     -0.353145   9 H  s                45      0.323259   5 C  pz        

 Vector   32  Occ=0.000000D+00  E= 2.658696D-01
              MO Center=  9.1D-01, -2.9D-01,  4.8D-01, r^2= 6.3D+00
   Bfn.  Coefficient  Atom+Function         Bfn.  Coefficient  Atom+Function  
  ----- ------------  ---------------      ----- ------------  ---------------
    77     -0.798460  14 H  s                65      0.755128   8 H  s         
    75      0.733752  13 H  s                 6     -0.557636   1 O  s         
    45     -0.539945   5 C  pz               15      0.478054   2 O  s         
    67      0.451758   9 H  s                71     -0.321682  11 H  s         
    52      0.307816   6 C  px                9     -0.284815   1 O  pz        

 Vector   33  Occ=0.000000D+00  E= 2.902107D-01
              MO Center= -6.9D-01, -9.0D-01, -5.6D-01, r^2= 4.4D+00
   Bfn.  Coefficient  Atom+Function         Bfn.  Coefficient  Atom+Function  
  ----- ------------  ---------------      ----- ------------  ---------------
    69      1.393177  10 H  s                51     -1.191042   6 C  s         
    65     -0.772327   8 H  s                54      0.648174   6 C  pz        
    71      0.549917  11 H  s                52      0.539513   6 C  px        
    67      0.526943   9 H  s                45      0.363124   5 C  pz        
    42      0.338097   5 C  s                 6     -0.294279   1 O  s         

 Vector   34  Occ=0.000000D+00  E= 3.382157D-01
              MO Center= -6.4D-01, -8.0D-01,  4.6D-01, r^2= 6.1D+00
   Bfn.  Coefficient  Atom+Function         Bfn.  Coefficient  Atom+Function  
  ----- ------------  ---------------      ----- ------------  ---------------
    65      0.940668   8 H  s                67      0.915663   9 H  s         
    42     -0.770172   5 C  s                51     -0.754348   6 C  s         
    73     -0.731721  12 H  s                75     -0.699315  13 H  s         
    33      0.601020   4 N  s                69      0.595572  10 H  s         
    53      0.524291   6 C  py                6      0.460976   1 O  s         

 Vector   35  Occ=0.000000D+00  E= 3.500723D-01
              MO Center= -8.5D-01, -1.5D+00, -1.8D-01, r^2= 3.9D+00
   Bfn.  Coefficient  Atom+Function         Bfn.  Coefficient  Atom+Function  
  ----- ------------  ---------------      ----- ------------  ---------------
    67      1.519635   9 H  s                69     -1.105321  10 H  s         
    54     -0.914782   6 C  pz               53      0.881605   6 C  py        
    65     -0.828371   8 H  s                42      0.670019   5 C  s         
    45      0.575174   5 C  pz               71      0.403813  11 H  s         
    52      0.370907   6 C  px               60     -0.328312   7 C  s         

 Vector   36  Occ=0.000000D+00  E= 3.584306D-01
              MO Center= -1.6D+00,  2.4D-01,  8.1D-02, r^2= 4.5D+00
   Bfn.  Coefficient  Atom+Function         Bfn.  Coefficient  Atom+Function  
  ----- ------------  ---------------      ----- ------------  ---------------
    73     -1.094027  12 H  s                51      1.062594   6 C  s         
    71      1.043714  11 H  s                36      0.755977   4 N  pz        
    42     -0.543354   5 C  s                44      0.530003   5 C  py        
    67     -0.487864   9 H  s                69     -0.440909  10 H  s         
    65      0.389755   8 H  s                35      0.343960   4 N  py        

 Vector   37  Occ=0.000000D+00  E= 4.205549D-01
              MO Center= -2.7D-01,  1.5D-03,  5.6D-02, r^2= 3.2D+00
   Bfn.  Coefficient  Atom+Function         Bfn.  Coefficient  Atom+Function  
  ----- ------------  ---------------      ----- ------------  ---------------
    60      1.976857   7 C  s                43     -1.251162   5 C  px        
    45      1.100933   5 C  pz               42     -0.976773   5 C  s         
    51      0.776628   6 C  s                53      0.731792   6 C  py        
    65     -0.543938   8 H  s                71     -0.543031  11 H  s         
    62     -0.526975   7 C  py               24     -0.428133   3 O  s         

 Vector   38  Occ=0.000000D+00  E= 4.446019D-01
              MO Center= -1.0D-01, -1.1D+00, -1.5D-02, r^2= 3.5D+00
   Bfn.  Coefficient  Atom+Function         Bfn.  Coefficient  Atom+Function  
  ----- ------------  ---------------      ----- ------------  ---------------
    51      1.417496   6 C  s                52      0.928756   6 C  px        
    42     -0.856431   5 C  s                 7      0.684424   1 O  px        
    75     -0.635090  13 H  s                 6     -0.539663   1 O  s         
    65      0.463373   8 H  s                44      0.450396   5 C  py        
     8     -0.326390   1 O  py               35     -0.290915   4 N  py        

 Vector   39  Occ=0.000000D+00  E= 4.571578D-01
              MO Center= -5.0D-01, -5.9D-01,  1.0D-02, r^2= 3.5D+00
   Bfn.  Coefficient  Atom+Function         Bfn.  Coefficient  Atom+Function  
  ----- ------------  ---------------      ----- ------------  ---------------
    42      1.427975   5 C  s                53     -1.026617   6 C  py        
    44     -1.007953   5 C  py               43     -0.815675   5 C  px        
    54     -0.782038   6 C  pz               51     -0.776512   6 C  s         
    52      0.680430   6 C  px               33     -0.627127   4 N  s         
    45     -0.616655   5 C  pz               61     -0.557602   7 C  px        

 Vector   40  Occ=0.000000D+00  E= 4.876086D-01
              MO Center= -2.5D-01,  2.1D-01,  3.7D-01, r^2= 3.5D+00
   Bfn.  Coefficient  Atom+Function         Bfn.  Coefficient  Atom+Function  
  ----- ------------  ---------------      ----- ------------  ---------------
    60     -1.510822   7 C  s                44      1.444339   5 C  py        
    51      0.770796   6 C  s                54      0.745644   6 C  pz        
    42      0.725975   5 C  s                34     -0.659164   4 N  px        
    33     -0.604522   4 N  s                16     -0.504930   2 O  px        
    63     -0.494870   7 C  pz               71     -0.429229  11 H  s         

 Vector   41  Occ=0.000000D+00  E= 5.572936D-01
              MO Center=  2.7D-01,  7.9D-01, -6.1D-02, r^2= 3.1D+00
   Bfn.  Coefficient  Atom+Function         Bfn.  Coefficient  Atom+Function  
  ----- ------------  ---------------      ----- ------------  ---------------
    42      2.040354   5 C  s                62      1.328206   7 C  py        
    61      1.277710   7 C  px               44      0.857050   5 C  py        
    24     -0.770089   3 O  s                45     -0.689122   5 C  pz        
    63     -0.546743   7 C  pz               15     -0.467238   2 O  s         
    25     -0.454614   3 O  px               34     -0.440039   4 N  px        


 center of mass
 --------------
 x =   0.05310771 y =   0.04985245 z =  -0.02364100

 moments of inertia (a.u.)
 ------------------
         729.953787213531          -0.000000000000          -0.000000000000
          -0.000000000000         574.980996968176          -0.000000000000
          -0.000000000000          -0.000000000000        1069.601037078404

  Mulliken analysis of the total density
  --------------------------------------

    Atom       Charge   Shell Charges
 -----------   ------   -------------------------------------------------------
    1 O    8     8.67   1.99  0.41  2.10  1.50  2.67
    2 O    8     8.71   1.99  0.41  2.11  1.52  2.68
    3 O    8     8.62   1.99  0.43  2.07  1.56  2.57
    4 N    7     7.74   1.99  0.36  1.81  1.35  2.23
    5 C    6     6.24   1.99  0.34  1.61  1.11  1.18
    6 C    6     6.03   1.99  0.37  1.56  0.99  1.13
    7 C    6     5.11   1.99  0.44  1.49  0.52  0.68
    8 H    1     0.74   0.47  0.27
    9 H    1     0.78   0.48  0.30
   10 H    1     0.76   0.48  0.29
   11 H    1     0.69   0.45  0.24
   12 H    1     0.70   0.45  0.25
   13 H    1     0.62   0.43  0.19
   14 H    1     0.59   0.40  0.18

       Multipole analysis of the density wrt the origin
       ------------------------------------------------

     L   x y z        total         open         nuclear
     -   - - -        -----         ----         -------
     0   0 0 0     -0.000000      0.000000     56.000000

     1   1 0 0      0.053474      0.000000     -0.000000
     1   0 1 0      0.118757      0.000000      0.000000
     1   0 0 1      0.789446      0.000000      0.000000

     2   2 0 0    -31.405510      0.000000    257.698406
     2   1 1 0      2.351354      0.000000      1.719249
     2   1 0 1      2.323510      0.000000      2.211993
     2   0 2 0    -30.697270      0.000000    333.705022
     2   0 1 1      0.519651      0.000000      1.900602
     2   0 0 2    -30.926466      0.000000     69.683502


 Parallel integral file used      75 records with       0 large values

                              NWChem Gradients Module
                              -----------------------


                                      serine


  wavefunction    =   RHF     



                         RHF ENERGY GRADIENTS

    atom               coordinates                        gradient
                 x          y          z           x          y          z
   1 O       1.759124  -3.649763  -0.503872   -0.012275   0.002235  -0.004148
   2 O       2.896210   1.646039   1.190349   -0.000706  -0.014290   0.008587
   3 O       0.160858   3.246276  -1.706801   -0.006174   0.023029  -0.026975
   4 N      -3.671428   0.553656   0.698930    0.009581  -0.011385   0.005970
   5 C      -1.076543  -0.375150   0.890881    0.010538  -0.014892  -0.004623
   6 C      -0.769621  -2.754352  -0.709707    0.007963   0.012664   0.005248
   7 C       0.651012   1.707266  -0.054541   -0.012543  -0.005564   0.017159
   8 H      -0.642382  -0.754756   2.879656   -0.000169  -0.000946   0.012290
   9 H      -2.047225  -4.259952  -0.088797    0.003357  -0.014445   0.000602
  10 H      -1.132010  -2.379259  -2.713137   -0.002716  -0.001362  -0.011735
  11 H      -4.096147   0.969160  -1.133379   -0.001158   0.004132  -0.008054
  12 H      -3.858817   2.191435   1.694740    0.004257   0.010882   0.001385
  13 H       2.070011  -4.023866   1.268223   -0.005737   0.000701   0.007223
  14 H       4.047934   2.974647   0.602988    0.005780   0.009241  -0.002929

                 ----------------------------------------
                 |  Time  |  1-e(secs)   |  2-e(secs)   |
                 ----------------------------------------
                 |  CPU   |       0.02   |       2.69   |
                 ----------------------------------------
                 |  WALL  |       0.02   |       2.69   |
                 ----------------------------------------

@ Step       Energy      Delta E   Gmax     Grms     Xrms     Xmax   Walltime
@ ---- ---------------- -------- -------- -------- -------- -------- --------
@    0    -394.49250924  0.0D+00  0.03594  0.00698  0.00000  0.00000      5.7
                                                                    



                                Z-matrix (autoz)
                                -------- 

 Units are Angstrom for bonds and degrees for angles

      Type          Name      I     J     K     L     M      Value     Gradient
      ----------- --------  ----- ----- ----- ----- ----- ---------- ----------
    1 Stretch                  1     6                       1.42374   -0.01767
    2 Stretch                  1    13                       0.97244    0.00585
    3 Stretch                  2     7                       1.35891    0.00730
    4 Stretch                  2    14                       0.98100    0.01114
    5 Stretch                  3     7                       1.22270    0.03594
    6 Stretch                  4     5                       1.46200   -0.01064
    7 Stretch                  4    11                       1.01932    0.00881
    8 Stretch                  4    12                       1.01914    0.00956
    9 Stretch                  5     6                       1.52608    0.00073
   10 Stretch                  5     7                       1.51669    0.00217
   11 Stretch                  5     8                       1.09577    0.01194
   12 Stretch                  6     9                       1.09536    0.00862
   13 Stretch                  6    10                       1.09551    0.01159
   14 Bend                     1     6     5               109.39846   -0.00525
   15 Bend                     1     6     9               108.36650   -0.00405
   16 Bend                     1     6    10               107.38940    0.00272
   17 Bend                     2     7     3               123.23067    0.00185
   18 Bend                     2     7     5               110.47249   -0.00466
   19 Bend                     3     7     5               126.29581    0.00282
   20 Bend                     4     5     6               109.80091    0.00335
   21 Bend                     4     5     7               107.39409   -0.00828
   22 Bend                     4     5     8               108.98285    0.00032
   23 Bend                     5     4    11               110.22450   -0.00004
   24 Bend                     5     4    12               109.95940   -0.00404
   25 Bend                     5     6     9               111.58650    0.00587
   26 Bend                     5     6    10               111.65413    0.00245
   27 Bend                     6     1    13               107.48978   -0.00697
   28 Bend                     6     5     7               110.62123    0.00442
   29 Bend                     6     5     8               111.06940   -0.00137
   30 Bend                     7     2    14               111.86987   -0.00078
   31 Bend                     7     5     8               108.88233    0.00127
   32 Bend                     9     6    10               108.30257   -0.00201
   33 Bend                    11     4    12               106.67599   -0.00006
   34 Torsion                  1     6     5     4        -179.79029    0.00017
   35 Torsion                  1     6     5     7          61.85289    0.00558
   36 Torsion                  1     6     5     8         -59.17958    0.00191
   37 Torsion                  2     7     5     4         148.01990   -0.00154
   38 Torsion                  2     7     5     6         -92.16719   -0.00001
   39 Torsion                  2     7     5     8          30.15374    0.00196
   40 Torsion                  3     7     2    14           0.10713    0.00096
   41 Torsion                  3     7     5     4         -32.34104   -0.00203
   42 Torsion                  3     7     5     6          87.47186   -0.00049
   43 Torsion                  3     7     5     8        -150.20720    0.00148
   44 Torsion                  4     5     6     9         -59.88450   -0.00462
   45 Torsion                  4     5     6    10          61.47785   -0.00133
   46 Torsion                  5     6     1    13          60.05396    0.00002
   47 Torsion                  5     7     2    14         179.75935    0.00051
   48 Torsion                  6     5     4    11         -59.83510   -0.00130
   49 Torsion                  6     5     4    12        -177.16756    0.00123
   50 Torsion                  7     5     4    11          60.49933    0.00098
   51 Torsion                  7     5     4    12         -56.83312    0.00351
   52 Torsion                  7     5     6     9        -178.24132    0.00078
   53 Torsion                  7     5     6    10         -56.87897    0.00408
   54 Torsion                  8     5     4    11         178.30019   -0.00192
   55 Torsion                  8     5     4    12          60.96774    0.00060
   56 Torsion                  8     5     6     9          60.72621   -0.00289
   57 Torsion                  8     5     6    10        -177.91144    0.00040
   58 Torsion                  9     6     1    13         -61.80910   -0.00144
   59 Torsion                 10     6     1    13        -178.59866    0.00157

 Restricting large step in mode    1 eval= 7.5D-04 step=-1.4D+00 new=-3.0D-01
 Restricting large step in mode    2 eval= 8.4D-04 step=-1.5D+00 new=-3.0D-01
 Restricting large step in mode    4 eval= 5.7D-03 step=-5.2D-01 new=-3.0D-01
 Restricting large step in mode    5 eval= 7.1D-03 step=-3.9D-01 new=-3.0D-01
 Restricting large step in mode    8 eval= 2.2D-02 step= 3.5D-01 new= 3.0D-01
 Restricting overall step due to large component. alpha=  0.92
                                 NWChem SCF Module
                                 -----------------


                                      serine



  ao basis        = "ao basis"
  functions       =    77
  atoms           =    14
  closed shells   =    28
  open shells     =     0
  charge          =   0.00
  wavefunction    = RHF 
  input vectors   = ./serine.movecs
  output vectors  = ./serine.movecs
  use symmetry    = F
  symmetry adapt  = F


 Summary of "ao basis" -> "ao basis" (cartesian)
 ------------------------------------------------------------------------------
       Tag                 Description            Shells   Functions and Types
 ---------------- ------------------------------  ------  ---------------------
 C                           3-21g                   5        9   3s2p
 H                           3-21g                   2        2   2s
 O                           3-21g                   5        9   3s2p
 N                           3-21g                   5        9   3s2p



 Forming initial guess at       5.8s


 Loading old vectors from job with title :

serine


 Starting SCF solution at       5.8s



 ----------------------------------------------
         Quadratically convergent ROHF

 Convergence threshold     :          1.000E-04
 Maximum no. of iterations :           30
 Final Fock-matrix accuracy:          1.000E-07
 ----------------------------------------------


 Integral file          = ./serine.aoints.0
 Record size in doubles =  65536        No. of integs per rec  =  43688
 Max. records in memory =    143        Max. records in file   =  16221
 No. of bits per label  =      8        No. of bits per value  =     64


 #quartets = 5.280D+05 #integrals = 3.266D+06 #direct =  0.0% #cached =100.0%


              iter       energy          gnorm     gmax       time
             ----- ------------------- --------- --------- --------
                 1     -394.4871112971  3.96D-01  5.95D-02      6.8
                 2     -394.5000050096  2.64D-02  5.50D-03      7.1
                 3     -394.5001135054  2.34D-04  8.68D-05      7.9
                 4     -394.5001135178  7.59D-06  1.73D-06      8.5


       Final RHF  results 
       ------------------ 

         Total SCF energy =   -394.500113517788
      One-electron energy =  -1187.754724168630
      Two-electron energy =    467.144438337481
 Nuclear repulsion energy =    326.110172313361

        Time for solution =      2.8s


             Final eigenvalues
             -----------------

              1      
    1  -20.5028
    2  -20.4556
    3  -20.4501
    4  -15.4704
    5  -11.3349
    6  -11.2338
    7  -11.2258
    8   -1.4693
    9   -1.3682
   10   -1.3548
   11   -1.2041
   12   -1.0126
   13   -0.9079
   14   -0.7981
   15   -0.7289
   16   -0.6939
   17   -0.6815
   18   -0.6529
   19   -0.6371
   20   -0.6115
   21   -0.5800
   22   -0.5649
   23   -0.5477
   24   -0.4869
   25   -0.4745
   26   -0.4538
   27   -0.4389
   28   -0.3917
   29    0.1766
   30    0.2595
   31    0.2642
   32    0.2758
   33    0.2955
   34    0.3380
   35    0.3587
   36    0.3680
   37    0.4317
   38    0.4452

                       ROHF Final Molecular Orbital Analysis
                       -------------------------------------

 Vector    8  Occ=2.000000D+00  E=-1.469328D+00
              MO Center=  8.5D-01,  1.1D+00, -3.9D-02, r^2= 1.2D+00
   Bfn.  Coefficient  Atom+Function         Bfn.  Coefficient  Atom+Function  
  ----- ------------  ---------------      ----- ------------  ---------------
    15      0.483316   2 O  s                24      0.431509   3 O  s         
    10     -0.155491   2 O  s         

 Vector    9  Occ=2.000000D+00  E=-1.368246D+00
              MO Center=  8.1D-01,  1.2D+00, -1.1D-01, r^2= 1.5D+00
   Bfn.  Coefficient  Atom+Function         Bfn.  Coefficient  Atom+Function  
  ----- ------------  ---------------      ----- ------------  ---------------
    15      0.547532   2 O  s                24     -0.538167   3 O  s         
    19      0.164667   3 O  s                10     -0.163782   2 O  s         
    20     -0.153138   3 O  s                11      0.150630   2 O  s         

 Vector   10  Occ=2.000000D+00  E=-1.354781D+00
              MO Center=  7.5D-01, -1.8D+00, -1.8D-01, r^2= 7.6D-01
   Bfn.  Coefficient  Atom+Function         Bfn.  Coefficient  Atom+Function  
  ----- ------------  ---------------      ----- ------------  ---------------
     6      0.684271   1 O  s                 1     -0.218991   1 O  s         
     2      0.203368   1 O  s         

 Vector   11  Occ=2.000000D+00  E=-1.204084D+00
              MO Center= -1.4D+00,  2.2D-01,  2.8D-01, r^2= 1.4D+00
   Bfn.  Coefficient  Atom+Function         Bfn.  Coefficient  Atom+Function  
  ----- ------------  ---------------      ----- ------------  ---------------
    33      0.542994   4 N  s                42      0.285562   5 C  s         
    28     -0.184769   4 N  s                29      0.166990   4 N  s         

 Vector   12  Occ=2.000000D+00  E=-1.012640D+00
              MO Center= -6.1D-01, -2.4D-01,  1.6D-01, r^2= 2.8D+00
   Bfn.  Coefficient  Atom+Function         Bfn.  Coefficient  Atom+Function  
  ----- ------------  ---------------      ----- ------------  ---------------
    33      0.403452   4 N  s                42     -0.394569   5 C  s         
    51     -0.268304   6 C  s                 6      0.206597   1 O  s         

 Vector   13  Occ=2.000000D+00  E=-9.079341D-01
              MO Center=  3.9D-02, -5.4D-01, -2.4D-02, r^2= 3.3D+00
   Bfn.  Coefficient  Atom+Function         Bfn.  Coefficient  Atom+Function  
  ----- ------------  ---------------      ----- ------------  ---------------
    51      0.477662   6 C  s                60     -0.219674   7 C  s         
    42     -0.199582   5 C  s                 6     -0.167609   1 O  s         

 Vector   14  Occ=2.000000D+00  E=-7.980906D-01
              MO Center=  3.9D-01,  2.5D-01,  3.1D-01, r^2= 3.8D+00
   Bfn.  Coefficient  Atom+Function         Bfn.  Coefficient  Atom+Function  
  ----- ------------  ---------------      ----- ------------  ---------------
    42      0.387735   5 C  s                12      0.252749   2 O  px        
    60     -0.248056   7 C  s                16      0.242712   2 O  px        
    51     -0.189058   6 C  s                24      0.151649   3 O  s         

 Vector   15  Occ=2.000000D+00  E=-7.288779D-01
              MO Center= -9.5D-02,  1.1D-01,  1.3D-01, r^2= 3.3D+00
   Bfn.  Coefficient  Atom+Function         Bfn.  Coefficient  Atom+Function  
  ----- ------------  ---------------      ----- ------------  ---------------
    57      0.203352   7 C  px               41      0.177245   5 C  pz        
    16     -0.175012   2 O  px               12     -0.170751   2 O  px        

 Vector   16  Occ=2.000000D+00  E=-6.939191D-01
              MO Center= -4.0D-01, -3.6D-01,  9.5D-02, r^2= 4.2D+00
   Bfn.  Coefficient  Atom+Function         Bfn.  Coefficient  Atom+Function  
  ----- ------------  ---------------      ----- ------------  ---------------
    32     -0.179051   4 N  pz                5      0.171241   1 O  pz        
     9      0.164241   1 O  pz               36     -0.154891   4 N  pz        

 Vector   17  Occ=2.000000D+00  E=-6.815342D-01
              MO Center=  2.8D-01,  1.1D+00, -3.0D-01, r^2= 3.0D+00
   Bfn.  Coefficient  Atom+Function         Bfn.  Coefficient  Atom+Function  
  ----- ------------  ---------------      ----- ------------  ---------------
    24      0.386338   3 O  s                23     -0.234882   3 O  pz        
    27     -0.227233   3 O  pz               17     -0.216715   2 O  py        
    15      0.207351   2 O  s                13     -0.196196   2 O  py        
    58     -0.162094   7 C  py        

 Vector   18  Occ=2.000000D+00  E=-6.529166D-01
              MO Center=  2.6D-01, -4.1D-01, -4.3D-02, r^2= 3.8D+00
   Bfn.  Coefficient  Atom+Function         Bfn.  Coefficient  Atom+Function  
  ----- ------------  ---------------      ----- ------------  ---------------
    18      0.210152   2 O  pz               14      0.200970   2 O  pz        
    42     -0.197033   5 C  s                 8     -0.172259   1 O  py        
     4     -0.168740   1 O  py               49     -0.166711   6 C  py        
    57     -0.164783   7 C  px               61     -0.164200   7 C  px        
    21     -0.157088   3 O  px        

 Vector   19  Occ=2.000000D+00  E=-6.371495D-01
              MO Center= -3.7D-01, -1.3D-02,  8.4D-02, r^2= 4.1D+00
   Bfn.  Coefficient  Atom+Function         Bfn.  Coefficient  Atom+Function  
  ----- ------------  ---------------      ----- ------------  ---------------
     6     -0.175539   1 O  s                39      0.170644   5 C  px        
    30     -0.168875   4 N  px                9      0.167306   1 O  pz        
     5      0.163271   1 O  pz               31      0.158383   4 N  py        
    35      0.153280   4 N  py               34     -0.152393   4 N  px        

 Vector   20  Occ=2.000000D+00  E=-6.114891D-01
              MO Center= -4.1D-01, -2.1D-01, -5.2D-02, r^2= 4.1D+00
   Bfn.  Coefficient  Atom+Function         Bfn.  Coefficient  Atom+Function  
  ----- ------------  ---------------      ----- ------------  ---------------
    32      0.210540   4 N  pz               36      0.199223   4 N  pz        
     7      0.180109   1 O  px               17     -0.180759   2 O  py        
    13     -0.164878   2 O  py                3      0.161607   1 O  px        
    70     -0.161114  11 H  s         

 Vector   21  Occ=2.000000D+00  E=-5.799991D-01
              MO Center=  1.7D-01, -2.2D-01, -9.9D-03, r^2= 4.1D+00
   Bfn.  Coefficient  Atom+Function         Bfn.  Coefficient  Atom+Function  
  ----- ------------  ---------------      ----- ------------  ---------------
    17      0.252193   2 O  py               13      0.234213   2 O  py        
    49      0.180923   6 C  py               53      0.171067   6 C  py        
    26      0.161649   3 O  py                7      0.152635   1 O  px        
    22      0.151714   3 O  py        

 Vector   22  Occ=2.000000D+00  E=-5.649367D-01
              MO Center=  6.8D-01,  4.7D-01,  1.3D-01, r^2= 3.4D+00
   Bfn.  Coefficient  Atom+Function         Bfn.  Coefficient  Atom+Function  
  ----- ------------  ---------------      ----- ------------  ---------------
    18      0.325429   2 O  pz               14      0.285934   2 O  pz        
    27      0.216417   3 O  pz               15      0.212003   2 O  s         
    23      0.196894   3 O  pz               58      0.185787   7 C  py        
     8      0.157438   1 O  py               42     -0.151642   5 C  s         

 Vector   23  Occ=2.000000D+00  E=-5.477495D-01
              MO Center= -3.9D-01, -6.2D-01,  1.5D-01, r^2= 3.4D+00
   Bfn.  Coefficient  Atom+Function         Bfn.  Coefficient  Atom+Function  
  ----- ------------  ---------------      ----- ------------  ---------------
    41      0.216823   5 C  pz               45      0.206800   5 C  pz        
     7      0.199032   1 O  px               64      0.189103   8 H  s         
    34     -0.174635   4 N  px                3      0.171070   1 O  px        
    54     -0.166079   6 C  pz               30     -0.163156   4 N  px        
    65      0.152095   8 H  s         

 Vector   24  Occ=2.000000D+00  E=-4.868989D-01
              MO Center=  2.5D-01, -1.1D+00, -2.7D-01, r^2= 3.2D+00
   Bfn.  Coefficient  Atom+Function         Bfn.  Coefficient  Atom+Function  
  ----- ------------  ---------------      ----- ------------  ---------------
     9      0.300189   1 O  pz                5      0.255469   1 O  pz        
     7     -0.245496   1 O  px                6     -0.242648   1 O  s         
    50     -0.216205   6 C  pz                3     -0.191781   1 O  px        
    69      0.164352  10 H  s                68      0.152345  10 H  s         

 Vector   25  Occ=2.000000D+00  E=-4.744963D-01
              MO Center=  7.2D-01,  6.3D-01, -2.0D-01, r^2= 3.3D+00
   Bfn.  Coefficient  Atom+Function         Bfn.  Coefficient  Atom+Function  
  ----- ------------  ---------------      ----- ------------  ---------------
    18      0.276830   2 O  pz               17      0.255848   2 O  py        
    26     -0.244449   3 O  py                8     -0.237444   1 O  py        
    27     -0.238089   3 O  pz               14      0.214936   2 O  pz        
    23     -0.198689   3 O  pz               13      0.195678   2 O  py        
    22     -0.196156   3 O  py                4     -0.189889   1 O  py        

 Vector   26  Occ=2.000000D+00  E=-4.537605D-01
              MO Center=  1.4D-01,  7.6D-01, -4.0D-01, r^2= 3.4D+00
   Bfn.  Coefficient  Atom+Function         Bfn.  Coefficient  Atom+Function  
  ----- ------------  ---------------      ----- ------------  ---------------
    25      0.390156   3 O  px               21      0.345965   3 O  px        
    42      0.276982   5 C  s                26      0.201434   3 O  py        
    22      0.178857   3 O  py               45     -0.179108   5 C  pz        
     8     -0.177257   1 O  py               16      0.166373   2 O  px        
    35      0.154810   4 N  py        

 Vector   27  Occ=2.000000D+00  E=-4.388728D-01
              MO Center=  1.2D-01, -7.3D-01, -1.9D-01, r^2= 4.0D+00
   Bfn.  Coefficient  Atom+Function         Bfn.  Coefficient  Atom+Function  
  ----- ------------  ---------------      ----- ------------  ---------------
     8      0.409021   1 O  py                4      0.331778   1 O  py        
    25      0.197096   3 O  px               44      0.196490   5 C  py        
    21      0.172173   3 O  px               49     -0.165767   6 C  py        
    34      0.160474   4 N  px               40      0.161256   5 C  py        

 Vector   28  Occ=2.000000D+00  E=-3.916803D-01
              MO Center= -1.4D+00,  2.1D-01,  2.6D-01, r^2= 2.6D+00
   Bfn.  Coefficient  Atom+Function         Bfn.  Coefficient  Atom+Function  
  ----- ------------  ---------------      ----- ------------  ---------------
    35      0.410094   4 N  py               31      0.311867   4 N  py        
    34      0.303867   4 N  px               60     -0.236041   7 C  s         
    33     -0.222640   4 N  s                30      0.215998   4 N  px        
    15      0.165511   2 O  s                25     -0.154140   3 O  px        
    36     -0.150714   4 N  pz        

 Vector   29  Occ=0.000000D+00  E= 1.766474D-01
              MO Center=  1.4D-01,  6.2D-01, -6.6D-02, r^2= 3.0D+00
   Bfn.  Coefficient  Atom+Function         Bfn.  Coefficient  Atom+Function  
  ----- ------------  ---------------      ----- ------------  ---------------
    51      0.577882   6 C  s                63      0.376661   7 C  pz        
    67     -0.362267   9 H  s                62      0.356354   7 C  py        
    33     -0.333407   4 N  s                27     -0.302549   3 O  pz        
    26     -0.298888   3 O  py               65     -0.294899   8 H  s         
    44      0.261782   5 C  py               45      0.256210   5 C  pz        

 Vector   30  Occ=0.000000D+00  E= 2.594911D-01
              MO Center=  9.0D-01,  3.6D-01,  3.0D-01, r^2= 6.7D+00
   Bfn.  Coefficient  Atom+Function         Bfn.  Coefficient  Atom+Function  
  ----- ------------  ---------------      ----- ------------  ---------------
    77      0.910051  14 H  s                33      0.776725   4 N  s         
    75      0.611111  13 H  s                15     -0.578642   2 O  s         
     6     -0.521242   1 O  s                71     -0.390429  11 H  s         
    73     -0.389474  12 H  s                17     -0.272096   2 O  py        
     9     -0.248141   1 O  pz               44     -0.239436   5 C  py        

 Vector   31  Occ=0.000000D+00  E= 2.642167D-01
              MO Center= -7.6D-01,  3.9D-01,  4.5D-01, r^2= 6.4D+00
   Bfn.  Coefficient  Atom+Function         Bfn.  Coefficient  Atom+Function  
  ----- ------------  ---------------      ----- ------------  ---------------
    33      0.950591   4 N  s                42      0.885596   5 C  s         
    65     -0.816617   8 H  s                73     -0.792159  12 H  s         
    51      0.570196   6 C  s                77     -0.565942  14 H  s         
    71     -0.529861  11 H  s                67     -0.476113   9 H  s         
    15      0.386611   2 O  s                60     -0.364682   7 C  s         

 Vector   32  Occ=0.000000D+00  E= 2.757618D-01
              MO Center=  1.0D+00, -4.7D-01,  5.2D-01, r^2= 5.9D+00
   Bfn.  Coefficient  Atom+Function         Bfn.  Coefficient  Atom+Function  
  ----- ------------  ---------------      ----- ------------  ---------------
    75      0.793282  13 H  s                77     -0.779974  14 H  s         
    65      0.771806   8 H  s                 6     -0.617914   1 O  s         
    45     -0.541428   5 C  pz               67      0.477415   9 H  s         
    15      0.459497   2 O  s                52      0.353467   6 C  px        
     9     -0.316725   1 O  pz               71     -0.262849  11 H  s         

 Vector   33  Occ=0.000000D+00  E= 2.955283D-01
              MO Center= -8.0D-01, -6.5D-01, -4.2D-01, r^2= 4.7D+00
   Bfn.  Coefficient  Atom+Function         Bfn.  Coefficient  Atom+Function  
  ----- ------------  ---------------      ----- ------------  ---------------
    69      1.359155  10 H  s                51     -1.031459   6 C  s         
    65     -0.910170   8 H  s                71      0.653497  11 H  s         
    54      0.645112   6 C  pz               52      0.481096   6 C  px        
    42      0.452719   5 C  s                45      0.444271   5 C  pz        
    36      0.349413   4 N  pz               73     -0.341242  12 H  s         

 Vector   34  Occ=0.000000D+00  E= 3.380330D-01
              MO Center= -7.2D-01, -7.9D-01,  4.4D-01, r^2= 6.2D+00
   Bfn.  Coefficient  Atom+Function         Bfn.  Coefficient  Atom+Function  
  ----- ------------  ---------------      ----- ------------  ---------------
    67     -0.946599   9 H  s                65     -0.936109   8 H  s         
    51      0.867614   6 C  s                42      0.779518   5 C  s         
    73      0.736947  12 H  s                75      0.673950  13 H  s         
    69     -0.656189  10 H  s                33     -0.646109   4 N  s         
    53     -0.476096   6 C  py               45      0.459079   5 C  pz        

 Vector   35  Occ=0.000000D+00  E= 3.587129D-01
              MO Center= -9.0D-01, -1.4D+00, -1.4D-01, r^2= 4.0D+00
   Bfn.  Coefficient  Atom+Function         Bfn.  Coefficient  Atom+Function  
  ----- ------------  ---------------      ----- ------------  ---------------
    67      1.507576   9 H  s                69     -1.172058  10 H  s         
    53      0.946398   6 C  py               54     -0.925789   6 C  pz        
    65     -0.846882   8 H  s                45      0.656201   5 C  pz        
    42      0.565041   5 C  s                71      0.452480  11 H  s         
    52      0.330416   6 C  px               33     -0.251256   4 N  s         

 Vector   36  Occ=0.000000D+00  E= 3.679782D-01
              MO Center= -1.6D+00,  1.1D-02,  1.8D-01, r^2= 4.8D+00
   Bfn.  Coefficient  Atom+Function         Bfn.  Coefficient  Atom+Function  
  ----- ------------  ---------------      ----- ------------  ---------------
    51      1.255610   6 C  s                73     -1.061492  12 H  s         
    71      0.950948  11 H  s                42     -0.787173   5 C  s         
    36      0.728809   4 N  pz               67     -0.726899   9 H  s         
    65      0.670751   8 H  s                44      0.562435   5 C  py        
    69     -0.440864  10 H  s                43     -0.365793   5 C  px        

 Vector   37  Occ=0.000000D+00  E= 4.317221D-01
              MO Center= -2.4D-01, -1.7D-02, -2.7D-02, r^2= 3.3D+00
   Bfn.  Coefficient  Atom+Function         Bfn.  Coefficient  Atom+Function  
  ----- ------------  ---------------      ----- ------------  ---------------
    60      1.917618   7 C  s                42     -1.222310   5 C  s         
    43     -1.182127   5 C  px               45      1.101115   5 C  pz        
    51      1.041551   6 C  s                53      0.769288   6 C  py        
    71     -0.621477  11 H  s                36     -0.485011   4 N  pz        
    24     -0.466629   3 O  s                62     -0.458503   7 C  py        

 Vector   38  Occ=0.000000D+00  E= 4.452111D-01
              MO Center= -1.8D-01, -1.1D+00,  5.9D-02, r^2= 3.4D+00
   Bfn.  Coefficient  Atom+Function         Bfn.  Coefficient  Atom+Function  
  ----- ------------  ---------------      ----- ------------  ---------------
    51      1.349721   6 C  s                52      0.817010   6 C  px        
    44      0.708298   5 C  py                7      0.662149   1 O  px        
    75     -0.610190  13 H  s                42     -0.587318   5 C  s         
     6     -0.445095   1 O  s                60     -0.397731   7 C  s         
    43      0.390834   5 C  px               35     -0.386590   4 N  py        

 Vector   39  Occ=0.000000D+00  E= 4.626086D-01
              MO Center= -5.1D-01, -6.5D-01,  8.0D-03, r^2= 3.4D+00
   Bfn.  Coefficient  Atom+Function         Bfn.  Coefficient  Atom+Function  
  ----- ------------  ---------------      ----- ------------  ---------------
    42      1.164384   5 C  s                44     -1.004911   5 C  py        
    43     -0.975230   5 C  px               53     -0.931823   6 C  py        
    52      0.849445   6 C  px               54     -0.725452   6 C  pz        
    60      0.666097   7 C  s                33     -0.656751   4 N  s         
    61     -0.535388   7 C  px               34     -0.522108   4 N  px        

 Vector   40  Occ=0.000000D+00  E= 4.809118D-01
              MO Center= -2.2D-01,  3.6D-01,  3.7D-01, r^2= 3.4D+00
   Bfn.  Coefficient  Atom+Function         Bfn.  Coefficient  Atom+Function  
  ----- ------------  ---------------      ----- ------------  ---------------
    60      1.581879   7 C  s                44     -1.234954   5 C  py        
    42     -1.147827   5 C  s                34      0.699118   4 N  px        
    54     -0.592328   6 C  pz               16      0.551206   2 O  px        
    63      0.545390   7 C  pz               33      0.502693   4 N  s         
    69     -0.477452  10 H  s                71      0.454235  11 H  s         

 Vector   41  Occ=0.000000D+00  E= 5.677064D-01
              MO Center=  4.1D-01,  8.4D-01, -5.8D-02, r^2= 2.9D+00
   Bfn.  Coefficient  Atom+Function         Bfn.  Coefficient  Atom+Function  
  ----- ------------  ---------------      ----- ------------  ---------------
    42      1.906233   5 C  s                61      1.373342   7 C  px        
    62      1.318924   7 C  py               24     -0.852623   3 O  s         
    44      0.755195   5 C  py               45     -0.692185   5 C  pz        
    63     -0.597784   7 C  pz               43      0.513466   5 C  px        
    15     -0.496339   2 O  s                25     -0.463614   3 O  px        


 center of mass
 --------------
 x =   0.08544441 y =   0.05326719 z =  -0.03080629

 moments of inertia (a.u.)
 ------------------
         698.754802175460          -4.949024985815           4.393511218376
          -4.949024985815         600.287850218996          -3.961417450232
           4.393511218376          -3.961417450232        1059.868882498338

  Mulliken analysis of the total density
  --------------------------------------

    Atom       Charge   Shell Charges
 -----------   ------   -------------------------------------------------------
    1 O    8     8.68   1.99  0.41  2.10  1.50  2.68
    2 O    8     8.72   1.99  0.41  2.12  1.52  2.69
    3 O    8     8.62   1.99  0.43  2.08  1.56  2.56
    4 N    7     7.77   1.99  0.36  1.83  1.33  2.26
    5 C    6     6.23   1.99  0.34  1.62  1.11  1.18
    6 C    6     6.03   1.99  0.36  1.56  0.99  1.13
    7 C    6     5.10   1.99  0.44  1.51  0.51  0.66
    8 H    1     0.74   0.47  0.26
    9 H    1     0.78   0.48  0.29
   10 H    1     0.76   0.48  0.28
   11 H    1     0.68   0.45  0.23
   12 H    1     0.69   0.45  0.24
   13 H    1     0.62   0.43  0.19
   14 H    1     0.59   0.41  0.18

       Multipole analysis of the density wrt the origin
       ------------------------------------------------

     L   x y z        total         open         nuclear
     -   - - -        -----         ----         -------
     0   0 0 0     -0.000000      0.000000     56.000000

     1   1 0 0     -0.038993      0.000000      1.587596
     1   0 1 0      0.089224      0.000000      0.147958
     1   0 0 1      0.866255      0.000000     -0.363759

     2   2 0 0    -29.512463      0.000000    272.623958
     2   1 1 0      1.406503      0.000000      3.634037
     2   1 0 1      2.089840      0.000000     -0.460305
     2   0 2 0    -30.957120      0.000000    315.112101
     2   0 1 1      0.383132      0.000000      3.698632
     2   0 0 2    -31.210627      0.000000     70.232221


 Parallel integral file used      75 records with       0 large values

 Line search: 
     step= 0.92 grad=-1.5D-02 hess= 6.9D-03 energy=   -394.500114 mode=downhill
 new step= 1.06                   predicted energy=   -394.500250

          --------
          Step   1
          --------


                         Geometry "geometry" -> "geometry"
                         ---------------------------------

[...]
   57 Torsion                  8     5     6    10         164.12399    0.00000
   58 Torsion                  9     6     1    13         -73.92885    0.00000
   59 Torsion                 10     6     1    13         167.46680   -0.00000


      ----------------------
      Optimization converged
      ----------------------


  Step       Energy      Delta E   Gmax     Grms     Xrms     Xmax   Walltime
  ---- ---------------- -------- -------- -------- -------- -------- --------
@    8    -394.50250779 -3.8D-08  0.00001  0.00000  0.00034  0.00095     61.2
                                     ok       ok       ok       ok  



                                Z-matrix (autoz)
                                -------- 

 Units are Angstrom for bonds and degrees for angles

      Type          Name      I     J     K     L     M      Value     Gradient
      ----------- --------  ----- ----- ----- ----- ----- ---------- ----------
    1 Stretch                  1     6                       1.43397    0.00001
    2 Stretch                  1    13                       0.96574   -0.00000
    3 Stretch                  2     7                       1.35850   -0.00001
    4 Stretch                  2    14                       0.96905    0.00000
    5 Stretch                  3     7                       1.20111    0.00000
    6 Stretch                  4     5                       1.45496   -0.00001
    7 Stretch                  4    11                       1.00537   -0.00000
    8 Stretch                  4    12                       1.00315   -0.00000
    9 Stretch                  5     6                       1.54589    0.00001
   10 Stretch                  5     7                       1.50686    0.00000
   11 Stretch                  5     8                       1.07979   -0.00000
   12 Stretch                  6     9                       1.08187   -0.00000
   13 Stretch                  6    10                       1.07773   -0.00000
   14 Bend                     1     6     5               112.95075   -0.00000
   15 Bend                     1     6     9               112.69599    0.00000
   16 Bend                     1     6    10               105.82634    0.00000
   17 Bend                     2     7     3               122.87229    0.00000
   18 Bend                     2     7     5               110.82480   -0.00000
   19 Bend                     3     7     5               126.29829   -0.00000
   20 Bend                     4     5     6               107.74402   -0.00000
   21 Bend                     4     5     7               112.82166   -0.00000
   22 Bend                     4     5     8               110.17491    0.00000
   23 Bend                     5     4    11               112.18577   -0.00000
   24 Bend                     5     4    12               114.34128    0.00000
   25 Bend                     5     6     9               108.42963    0.00000
   26 Bend                     5     6    10               108.10034   -0.00000
   27 Bend                     6     1    13               111.32533   -0.00000
   28 Bend                     6     5     7               108.13130   -0.00000
   29 Bend                     6     5     8               109.93641    0.00000
   30 Bend                     7     2    14               112.25410    0.00000
   31 Bend                     7     5     8               107.99963    0.00000
   32 Bend                     9     6    10               108.64570    0.00000
   33 Bend                    11     4    12               111.31249    0.00000
   34 Torsion                  1     6     5     4         160.78398   -0.00000
   35 Torsion                  1     6     5     7          38.55554    0.00000
   36 Torsion                  1     6     5     8         -79.13249    0.00000
   37 Torsion                  2     7     5     4         157.51770    0.00000
   38 Torsion                  2     7     5     6         -83.42263   -0.00000
   39 Torsion                  2     7     5     8          35.50145   -0.00000
   40 Torsion                  3     7     2    14          -4.30144   -0.00000
   41 Torsion                  3     7     5     4         -23.25039    0.00000
   42 Torsion                  3     7     5     6          95.80928   -0.00000
   43 Torsion                  3     7     5     8        -145.26664    0.00000
   44 Torsion                  4     5     6     9         -73.57030   -0.00000
   45 Torsion                  4     5     6    10          44.04047   -0.00000
   46 Torsion                  5     6     1    13          49.38571    0.00000
   47 Torsion                  5     7     2    14         174.96151    0.00000
   48 Torsion                  6     5     4    11         -75.65688    0.00000
   49 Torsion                  6     5     4    12         156.36981    0.00000
   50 Torsion                  7     5     4    11          43.62737   -0.00000
   51 Torsion                  7     5     4    12         -84.34594   -0.00000
   52 Torsion                  7     5     6     9         164.20126    0.00000
   53 Torsion                  7     5     6    10         -78.18798    0.00000
   54 Torsion                  8     5     4    11         164.41035   -0.00000
   55 Torsion                  8     5     4    12          36.43704   -0.00000
   56 Torsion                  8     5     6     9          46.51323    0.00000
   57 Torsion                  8     5     6    10         164.12399    0.00000
   58 Torsion                  9     6     1    13         -73.92885    0.00000
   59 Torsion                 10     6     1    13         167.46680   -0.00000



                         Geometry "geometry" -> "geometry"
                         ---------------------------------

 Output coordinates in angstroms (scale by  1.889725989 to convert to a.u.)

  No.       Tag          Charge          X              Y              Z
 ---- ---------------- ---------- -------------- -------------- --------------
    1 O                    8.0000     0.95306195    -1.78863029    -0.44809746
    2 O                    8.0000     1.56141103     0.67013171     0.68367917
    3 O                    8.0000     0.26058702     1.67263607    -0.85330688
    4 N                    7.0000    -2.00591923     0.31717062     0.20332003
    5 C                    6.0000    -0.64943408    -0.13105344     0.47888858
    6 C                    6.0000    -0.43273235    -1.46549475    -0.27084193
    7 C                    6.0000     0.39613419     0.84653196     0.00799805
    8 H                    1.0000    -0.51435195    -0.27873834     1.53996312
    9 H                    1.0000    -0.97936736    -2.24183674     0.24773903
   10 H                    1.0000    -0.83965248    -1.36181384    -1.26340005
   11 H                    1.0000    -2.09841582     0.70116325    -0.72121516
   12 H                    1.0000    -2.38519823     0.93677934     0.89508940
   13 H                    1.0000     1.44105802    -1.70941843     0.38150357
   14 H                    1.0000     2.27173483     1.23504325     0.34400715

      Atomic Mass 
      ----------- 

      O                 15.994910
      N                 14.003070
      C                 12.000000
      H                  1.007825


 Effective nuclear repulsion energy (a.u.)     328.0118402461

            Nuclear Dipole moment (a.u.) 
            ----------------------------
        X                 Y               Z
 ---------------- ---------------- ----------------
     1.7738082963    -1.0688755947    -1.5091463770


                Final and change from initial internal coordinates
                --------------------------------------------------



                                Z-matrix (autoz)
                                -------- 

 Units are Angstrom for bonds and degrees for angles

      Type          Name      I     J     K     L     M      Value       Change
      ----------- --------  ----- ----- ----- ----- ----- ---------- ----------
    1 Stretch                  1     6                       1.43397    0.01023
    2 Stretch                  1    13                       0.96574   -0.00670
    3 Stretch                  2     7                       1.35850   -0.00040
    4 Stretch                  2    14                       0.96905   -0.01195
    5 Stretch                  3     7                       1.20111   -0.02159
    6 Stretch                  4     5                       1.45496   -0.00704
    7 Stretch                  4    11                       1.00537   -0.01395
    8 Stretch                  4    12                       1.00315   -0.01599
    9 Stretch                  5     6                       1.54589    0.01982
   10 Stretch                  5     7                       1.50686   -0.00983
   11 Stretch                  5     8                       1.07979   -0.01599
   12 Stretch                  6     9                       1.08187   -0.01349
   13 Stretch                  6    10                       1.07773   -0.01777
   14 Bend                     1     6     5               112.95075    3.55229
   15 Bend                     1     6     9               112.69599    4.32949
   16 Bend                     1     6    10               105.82634   -1.56305
   17 Bend                     2     7     3               122.87229   -0.35837
   18 Bend                     2     7     5               110.82480    0.35231
   19 Bend                     3     7     5               126.29829    0.00248
   20 Bend                     4     5     6               107.74402   -2.05690
   21 Bend                     4     5     7               112.82166    5.42757
   22 Bend                     4     5     8               110.17491    1.19206
   23 Bend                     5     4    11               112.18577    1.96127
   24 Bend                     5     4    12               114.34128    4.38189
   25 Bend                     5     6     9               108.42963   -3.15686
   26 Bend                     5     6    10               108.10034   -3.55379
   27 Bend                     6     1    13               111.32533    3.83554
   28 Bend                     6     5     7               108.13130   -2.48993
   29 Bend                     6     5     8               109.93641   -1.13299
   30 Bend                     7     2    14               112.25410    0.38424
   31 Bend                     7     5     8               107.99963   -0.88270
   32 Bend                     9     6    10               108.64570    0.34313
   33 Bend                    11     4    12               111.31249    4.63649
   34 Torsion                  1     6     5     4         160.78398  -19.42573
   35 Torsion                  1     6     5     7          38.55554  -23.29736
   36 Torsion                  1     6     5     8         -79.13249  -19.95291
   37 Torsion                  2     7     5     4         157.51770    9.49780
   38 Torsion                  2     7     5     6         -83.42263    8.74456
   39 Torsion                  2     7     5     8          35.50145    5.34771
   40 Torsion                  3     7     2    14          -4.30144   -4.40857
   41 Torsion                  3     7     5     4         -23.25039    9.09065
   42 Torsion                  3     7     5     6          95.80928    8.33742
   43 Torsion                  3     7     5     8        -145.26664    4.94056
   44 Torsion                  4     5     6     9         -73.57030  -13.68580
   45 Torsion                  4     5     6    10          44.04047  -17.43738
   46 Torsion                  5     6     1    13          49.38571  -10.66825
   47 Torsion                  5     7     2    14         174.96151   -4.79784
   48 Torsion                  6     5     4    11         -75.65688  -15.82177
   49 Torsion                  6     5     4    12         156.36981  -26.46263
   50 Torsion                  7     5     4    11          43.62737  -16.87196
   51 Torsion                  7     5     4    12         -84.34594  -27.51282
   52 Torsion                  7     5     6     9         164.20126  -17.55743
   53 Torsion                  7     5     6    10         -78.18798  -21.30901
   54 Torsion                  8     5     4    11         164.41035  -13.88983
   55 Torsion                  8     5     4    12          36.43704  -24.53069
   56 Torsion                  8     5     6     9          46.51323  -14.21298
   57 Torsion                  8     5     6    10         164.12399  -17.96456
   58 Torsion                  9     6     1    13         -73.92885  -12.11975
   59 Torsion                 10     6     1    13         167.46680  -13.93454

 ==============================================================================
                                internuclear distances
 ------------------------------------------------------------------------------
       center one      |      center two      | atomic units |  angstroms
 ------------------------------------------------------------------------------
    5 C                |   4 N                |     2.74947  |     1.45496
    6 C                |   1 O                |     2.70981  |     1.43397
    6 C                |   5 C                |     2.92132  |     1.54589
    7 C                |   2 O                |     2.56720  |     1.35850
    7 C                |   3 O                |     2.26977  |     1.20111
    7 C                |   5 C                |     2.84755  |     1.50686
    8 H                |   5 C                |     2.04050  |     1.07979
    9 H                |   6 C                |     2.04444  |     1.08187
   10 H                |   6 C                |     2.03662  |     1.07773
   11 H                |   4 N                |     1.89988  |     1.00537
   12 H                |   4 N                |     1.89568  |     1.00315
   13 H                |   1 O                |     1.82498  |     0.96574
   14 H                |   2 O                |     1.83124  |     0.96905
 ------------------------------------------------------------------------------
                         number of included internuclear distances:         13
 ==============================================================================



 ==============================================================================
                                 internuclear angles
 ------------------------------------------------------------------------------
        center 1       |       center 2       |       center 3       |  degrees
 ------------------------------------------------------------------------------
    6 C                |   1 O                |  13 H                |   111.33
    7 C                |   2 O                |  14 H                |   112.25
    5 C                |   4 N                |  11 H                |   112.19
    5 C                |   4 N                |  12 H                |   114.34
   11 H                |   4 N                |  12 H                |   111.31
    4 N                |   5 C                |   6 C                |   107.74
    4 N                |   5 C                |   7 C                |   112.82
    4 N                |   5 C                |   8 H                |   110.17
    6 C                |   5 C                |   7 C                |   108.13
    6 C                |   5 C                |   8 H                |   109.94
    7 C                |   5 C                |   8 H                |   108.00
    1 O                |   6 C                |   5 C                |   112.95
    1 O                |   6 C                |   9 H                |   112.70
    1 O                |   6 C                |  10 H                |   105.83
    5 C                |   6 C                |   9 H                |   108.43
    5 C                |   6 C                |  10 H                |   108.10
    9 H                |   6 C                |  10 H                |   108.65
    2 O                |   7 C                |   3 O                |   122.87
    2 O                |   7 C                |   5 C                |   110.82
    3 O                |   7 C                |   5 C                |   126.30
 ------------------------------------------------------------------------------
                            number of included internuclear angles:         20
 ==============================================================================




 Task  times  cpu:       60.5s     wall:       61.2s
 Summary of allocated global arrays
-----------------------------------
  No active global arrays



                         GA Statistics for process    0
                         ------------------------------

       create   destroy   get      put      acc     scatter   gather  read&inc
calls: 2945     2945     3.98e+05 6.95e+04 2.86e+04    0        0     1722     
number of processes/call 1.00e+00 1.00e+00 1.00e+00 0.00e+00 0.00e+00
bytes total:             1.86e+08 9.49e+07 2.66e+07 0.00e+00 0.00e+00 6.89e+03
bytes remote:            0.00e+00 0.00e+00 0.00e+00 0.00e+00 0.00e+00 0.00e+00
Max memory consumed for GA by this process: 690312 bytes
MA_summarize_allocated_blocks: starting scan ...
MA_summarize_allocated_blocks: scan completed: 0 heap blocks, 0 stack blocks
MA usage statistics:

	allocation statistics:
					      heap	     stack
					      ----	     -----
	current number of blocks	         0	         0
	maximum number of blocks	        18	        28
	current total bytes		         0	         0
	maximum total bytes		  75087716	  16001884
	maximum total K-bytes		     75088	     16002
	maximum total M-bytes		        76	        17


                                NWChem Input Module
                                -------------------





                                     CITATION
                                     --------
                Please cite the following reference when publishing
                           results obtained with NWChem:

                 M. Valiev, E.J. Bylaska, N. Govind, K. Kowalski,
              T.P. Straatsma, H.J.J. van Dam, D. Wang, J. Nieplocha,
                        E. Apra, T.L. Windus, W.A. de Jong
                 "NWChem: a comprehensive and scalable open-source
                  solution for large scale molecular simulations"
                      Comput. Phys. Commun. 181, 1477 (2010)
                           doi:10.1016/j.cpc.2010.04.018

                                      AUTHORS
                                      -------
          E. Apra, E. J. Bylaska, W. A. de Jong, N. Govind, K. Kowalski,
       T. P. Straatsma, M. Valiev, H. J. J. van Dam, D. Wang, T. L. Windus,
        J. Hammond, J. Autschbach, K. Bhaskaran-Nair, J. Brabec, K. Lopata,
        S. Krishnamoorthy, W. Ma, M. Klemm, O. Villa, Y. Chen, V. Anisimov,
    F. Aquino, S. Hirata, M. T. Hackler, T. Risthaus, M. Malagoli, A. Marenich,
   A. Otero-de-la-Roza, J. Mullin, P. Nichols, R. Peverati, J. Pittner, Y. Zhao,
         P.-D. Fan, A. Fonari, R. J. Harrison, M. Dupuis, D. Silverstein,
    D. M. A. Smith, J. Nieplocha, V. Tipparaju, M. Krishnan, B. E. Van Kuiken,
        A. Vazquez-Mayagoitia, L. Jensen, M. Swart, Q. Wu, T. Van Voorhis,
     A. A. Auer, M. Nooijen, L. D. Crosby, E. Brown, G. Cisneros, G. I. Fann,
   H. Fruchtl, J. Garza, K. Hirao, R. A. Kendall, J. A. Nichols, K. Tsemekhman,
    K. Wolinski, J. Anchell, D. E. Bernholdt, P. Borowski, T. Clark, D. Clerc,
   H. Dachsel, M. J. O. Deegan, K. Dyall, D. Elwood, E. Glendening, M. Gutowski,
   A. C. Hess, J. Jaffe, B. G. Johnson, J. Ju, R. Kobayashi, R. Kutteh, Z. Lin,
   R. Littlefield, X. Long, B. Meng, T. Nakajima, S. Niu, L. Pollack, M. Rosing,
   K. Glaesemann, G. Sandrone, M. Stave, H. Taylor, G. Thomas, J. H. van Lenthe,
                               A. T. Wong, Z. Zhang.

 Total times  cpu:       60.5s     wall:       61.3s
